   This run of MOLCAS is using the pymolcas driver

                             OPE
                             OPE          NMOL  CASOP  ENMOLC A   SO
                 OPE        NMOLC        AS  OP EN  MO LC     AS  OP
                OPENM       OL CA        SO  PE NM  OL CA     SOP EN
                OP EN      MO   LC       AS  OP ENMOL  CASO   PENMOL
                OP  EN     MO   LC       AS  OP EN     MO     LC ASO
               OP   E  NMOL  C  AS       OP  EN MO     LC     AS  OP
               OP  E   NMO   LC AS        OPEN  MO     LCASOP EN   M
               O  PEN   MO  LCA  SO
            OPE   NMO   L   CAS    OP
        OPENMOL  CASOP     ENMOL   CASOPE
     OPENMOLCA   SOPENMOLCASOPEN   MOLCASOPE
    OPENMOLCAS   OP           EN   MOL    CAS
    OPENMOLCAS       OP  ENM        O     LCA
    OPENMOLCAS    OPEN  MOLCASO     P  E  NMO
    OPENMOLCAS     OP               E  N  MOL
    OPENMOLCA   SO           PENM   O  L  CAS    OPEN    MO    LCAS
    OPENMOLCA   SOP           ENM   O  L  CAS   OP  EN  MOLC  AS   O
    OPENMOLCA   SOPE           NM      O  LCA   S      OP  EN MO
    OPENMOLC                AS         O  PEN   M      OL  CA  SOPE
    OPENMO        LCASOPE  NMOL        C  ASO   P      ENMOLC     AS
    OPE     NMO      LCA  SO     P     E   NM   OL  CA SO  PE N   MO
          OPENMOLCA            SOPE   NMO        LCAS  O    P  ENMO
     OPENMOLCASOPENMOLCASOPENMOLCASOPENMOLCA
        OPENMOLCASOPENMOLCASOPENMOLCASOPE
            OPENMOLCASOPENMOLCASOPENM
               OPENMOLCASOPENMOLCA        version: 22.06
                   OPENMOLCASO
                       OPE                tag: 12-g046baff

 OpenMolcas is free software; you can redistribute it and/or modify it
 under the terms of the GNU Lesser General Public License version 2.1.
 OpenMolcas is distributed in the hope that it will be useful, but it
 is provided "as is" and without any express or implied warranties.
 For more details see the full text of the license in the file
 LICENSE or in <http://www.gnu.org/licenses/>.

                 Copyright (C) The OpenMolcas Authors
           For the author list and the recommended citation,
                   consult the file CONTRIBUTORS.md

           *************************************************
           * pymolcas version py2.23                       *
           *   build d53e6f8e18683222a6e02cb84ce98eb3      *
           *   (after the EMIL interpreter by V. Veryazov) *
           *************************************************

configuration info
------------------
Host name: rdm2.rowan.edu (Linux)
C Compiler ID: GNU
C flags: -std=gnu99 -fopenmp
Fortran Compiler ID: GNU
Fortran flags: -fno-aggressive-loop-optimizations -cpp -fdefault-integer-8 -fopenmp
Definitions: _MOLCAS_;_I8_;_LINUX_
Parallel: OFF (GA=OFF)


   ----------------------------------------------------------------------------
  |
  |             Project: au_elec
  |      Submitted from: /home/hoy/software/pyRUQT/example/elec_example
  |        Scratch area: /home/hoy/software/pyRUQT/example/elec_example/au_elec
  |     Save outputs to: /home/hoy/software/pyRUQT/example/elec_example
  |              Molcas: /opt/app1/sandx_fock2
  |
  | Scratch area is empty
  |
  |      MOLCAS_DRIVER = /opt/bin/pymolcas2
  |     MOLCAS_MAXITER = 200
  | MOLCAS_NEW_WORKDIR = NO
  |      MOLCAS_NPROCS = 1
  |       MOLCAS_PRINT = 6
  |      MOLCAS_SOURCE = /opt/app1/sandx_fock2
  |   MOLCAS_STRUCTURE = 0
  |
   ----------------------------------------------------------------------------

++ ---------   Input file   ---------

&GATEWAY
coord=au_elec.xyz
basis=LANL2DZ
group=nosym

&SEWARD
NODEleted
grid input
grid=fine
end of grid input

&SCF

&RASSCF
nActEl
6 0 0
INACTIVE
35
RAS2
6
DELEted
0 0 0 0
Symmetry
1
Spin
1
CIROot
1 1
 1

&MCPDFT
  KSDFT=T:PBE
  GRADIENT
  End of input

-- ----------------------------------

--- Start Module: gateway at Wed Aug 31 15:43:11 2022 ---

()()()()()()()()()()()()()()()()()()()()()()()()()()()()()()()()()()()()()()()()()()()()()()()()()()

                                              &GATEWAY

                                   only a single process is used
                       available to each process: 80 GB of memory, 4 threads
                                             pid: 17017
()()()()()()()()()()()()()()()()()()()()()()()()()()()()()()()()()()()()()()()()()()()()()()()()()()

 GuessOrb option turned off!
 GuessOrb option turned off!

++    Symmetry information:
      ---------------------

                    Character Table for C1 

                             E  
                    a        1  x, y, xy, Rz, z, xz, Ry, yz, Rx, I
--


++    Basis set information:
      ----------------------


      Basis set label: AU.LANL2DZ....ECP.....

      Electronic valence basis set:
      ------------------
      Associated Effective Charge  19.000000 au
      Associated Actual Charge     79.000000 au
      Nuclear Model: Point charge

      Shell  nPrim  nBasis  Cartesian Spherical Contaminant
         s       5       3        X                  
         p       6       3        X                  
         d       3       2                 X         

      Pseudo Potential specification:
      =======================================

      Potential  nTerms    
           H       5
         s-H       6
         p-H       4
         d-H       5
         f-H       5

      Effective Core Potential specification:
      =======================================
--


++    Molecular structure info:
      -------------------------

                    ************************************************ 
                    **** Cartesian Coordinates / Bohr, Angstrom **** 
                    ************************************************ 

     Center  Label                x              y              z                     x              y              z
        1      AU1            -16.327234       0.000000       0.000000             -8.640000       0.000000       0.000000
        2      AU2            -10.884822       0.000000       0.000000             -5.760000       0.000000       0.000000
        3      AU3             -5.442411       0.000000       0.000000             -2.880000       0.000000       0.000000
        4      AU4              0.000000       0.000000       0.000000              0.000000       0.000000       0.000000

                    *************************************** 
                    *    InterNuclear Distances / Bohr    * 
                    *************************************** 

               1 AU1           2 AU2           3 AU3           4 AU4   
    1 AU1      0.000000
    2 AU2      5.442411        0.000000
    3 AU3     10.884822        5.442411        0.000000
    4 AU4     16.327234       10.884822        5.442411        0.000000

                    ******************************************* 
                    *    InterNuclear Distances / Angstrom    * 
                    ******************************************* 

               1 AU1           2 AU2           3 AU3           4 AU4   
    1 AU1      0.000000
    2 AU2      2.880000        0.000000
    3 AU3      5.760000        2.880000        0.000000
    4 AU4      8.640000        5.760000        2.880000        0.000000
--


            Nuclear Potential Energy            287.43387162 au

--- Stop Module: gateway at Wed Aug 31 15:43:11 2022 /rc=_RC_ALL_IS_WELL_ ---
*** files: xmldump
    saved to directory /home/hoy/software/pyRUQT/example/elec_example

--- Start Module: seward at Wed Aug 31 15:43:11 2022 ---

()()()()()()()()()()()()()()()()()()()()()()()()()()()()()()()()()()()()()()()()()()()()()()()()()()

                                              &SEWARD

                                   only a single process is used
                       available to each process: 80 GB of memory, 4 threads
                                             pid: 17023
()()()()()()()()()()()()()()()()()()()()()()()()()()()()()()()()()()()()()()()()()()()()()()()()()()

               SEWARD will generate:
                  Multipole Moment integrals up to order  2
                  Kinetic Energy integrals
                  Nuclear Attraction integrals (point charge)
                  One-Electron Hamiltonian integrals modified with ECP contributions
                  Velocity integrals
                  Pseudo Potential integrals
                  Orbital angular momentum around (-8.1636  0.0000  0.0000 )
                  Velocity quadrupole around (-8.1636  0.0000  0.0000 )
                  Two-Electron Repulsion integrals

                   Integrals are discarded if absolute value <: 0.10E-13
                   Integral cutoff threshold is set to       <: 0.10E-15

            Nuclear Potential Energy            287.43387162 au


      Basis set specifications :
      Symmetry species         a  
      Basis functions           88

--- Stop Module: seward at Wed Aug 31 15:43:14 2022 /rc=_RC_ALL_IS_WELL_ ---
*** files: xmldump
    saved to directory /home/hoy/software/pyRUQT/example/elec_example
--- Module seward spent 3 seconds ---

--- Start Module: scf at Wed Aug 31 15:43:15 2022 ---

()()()()()()()()()()()()()()()()()()()()()()()()()()()()()()()()()()()()()()()()()()()()()()()()()()

                                                &SCF

                                   only a single process is used
                       available to each process: 80 GB of memory, 4 threads
                                             pid: 17032
()()()()()()()()()()()()()()()()()()()()()()()()()()()()()()()()()()()()()()()()()()()()()()()()()()

++    Input section:
      --------------

      Header of the integral files:
      
       Integrals generated by Gateway/Seward, Wed Aug 31 15:43:11 2022


      Cartesian coordinates in Angstrom:
      -----------------------------------------------------
      No.  Label        X            Y            Z        
      -----------------------------------------------------
       1   AU1       -8.64000000   0.00000000   0.00000000
       2   AU2       -5.76000000   0.00000000   0.00000000
       3   AU3       -2.88000000   0.00000000   0.00000000
       4   AU4        0.00000000   0.00000000   0.00000000
      -----------------------------------------------------
      Nuclear repulsion energy =  287.43387162
--

++    Orbital specifications:
      -----------------------

      Symmetry species               1
                                     a
      Frozen orbitals                0
      Aufbau                        38
      Start temperature = 0.500
      End temperature   = 0.010
      Temperature Factor= 0.460
      Deleted orbitals               0
      Total number of orbitals      88
      Number of basis functions     88
--

      Molecular charge                           0.000

++    Optimization specifications:
      ----------------------------

      SCF Algorithm: Conventional
      Minimized density differences are used
      Number of density matrices in core                5
      Maximum number of NDDO SCF iterations           400
      Maximum number of HF SCF iterations             400
      Threshold for SCF energy change            0.10E-08
      Threshold for density matrix               0.10E-03
      Threshold for Fock matrix                  0.15E-03
      Threshold for linear dependence            0.00E+00
      Threshold at which DIIS is turned on       0.15E+00
      Threshold at which QNR/C2DIIS is turned on 0.75E-01
      Threshold for Norm(delta) (QNR/C2DIIS)     0.20E-04
      DIIS extrapolation of the SCF procedure
      All orbitals punched on: SCFORB
--

      Starting vectors from core diagonalization


++ Convergence information
                                   SCF        iterations: Energy and convergence statistics

Iter     Tot. SCF        One-elec.       Two-elec.     Energy      Max Dij or  Max Fij      DNorm      TNorm      AccCon     Time
         Energy          Energy          Energy        Change      Delta Norm                                                in Sec.
   1  -528.814434398 -1569.579849819   753.331543805   0.00E+00    0.58E+00*   0.29E+01*    0.31E+02   0.17E+03   None         0.
   2  -494.452721424 -1329.034982054   547.148389013   0.34E+02*   0.54E+00*   0.22E+00*    0.33E+02   0.15E+03   EDIIS        0.
   3  -530.196804715 -1455.968355815   638.337679483  -0.36E+02*   0.22E+00*   0.16E+00*    0.75E+01   0.16E+03   EDIIS        0.
   4  -537.110140891 -1543.382987830   718.838975322  -0.69E+01*   0.92E+00*   0.32E+00*    0.35E+01   0.17E+03   EDIIS        0.
   5  -526.193733151 -1448.557817157   634.930212389   0.11E+02*   0.57E+00*   0.78E-01*    0.56E+01   0.16E+03   EDIIS        0.
   6  -537.720434267 -1521.945960208   696.791654325  -0.12E+02*   0.35E+00*   0.18E+00*    0.35E+01   0.17E+03   EDIIS        0.
   7  -538.075160075 -1532.612766451   707.103734759  -0.35E+00*   0.40E+00*   0.13E+00*    0.15E+01   0.17E+03   EDIIS        0.
   8  -538.118093556 -1527.823290548   702.271325375  -0.43E-01*   0.54E-01*   0.73E-01*    0.56E+00   0.17E+03   EDIIS        0.
   9  -538.156102510 -1530.136174462   704.546200335  -0.38E-01*   0.96E-01*   0.38E-01*    0.15E+00   0.17E+03   EDIIS        0.
  10  -538.157943947 -1529.413264623   703.821449059  -0.18E-02*   0.19E-01*   0.24E-01*    0.56E-01   0.17E+03   EDIIS        0.

       Fermi aufbau procedure completed!
      nOcc=   38

  11  -538.159206716 -1529.782827552   704.189749220  -0.13E-02*   0.31E-01*   0.35E-02*    0.19E-01   0.17E+03   EDIIS        0.
  12  -538.159378587 -1529.613629508   704.020379304  -0.17E-03*   0.75E-02*   0.16E-02*    0.78E-02   0.17E+03   EDIIS        0.
  13  -538.159470596 -1529.710408994   704.117066781  -0.92E-04*   0.12E-01*   0.14E-02*    0.21E-02   0.17E+03   EDIIS        0.
  14  -538.159495246 -1529.650268759   704.056901897  -0.25E-04*   0.27E-02*   0.61E-03*    0.49E-03   0.17E+03   EDIIS        0.
  15  -538.159509083 -1529.684608148   704.091227449  -0.14E-04*   0.28E-02*   0.38E-03*    0.10E-03   0.17E+03   c2DIIS       0.
  16  -538.159514033 -1529.669453770   704.076068121  -0.49E-05*   0.82E-03*   0.14E-03     0.16E-04   0.17E+03   QNRc2DIIS    0.
  17  -538.159514797 -1529.673029316   704.079642902  -0.76E-06*   0.92E-03*   0.13E-03     0.21E-02   0.17E+03   QNRc2DIIS    0.
  18  -538.159515234 -1529.671145136   704.077758285  -0.44E-06*   0.35E-03*   0.37E-04     0.26E-02   0.17E+03   QNRc2DIIS    0.
  19  -538.159515274 -1529.670311678   704.076924788  -0.39E-07*   0.31E-04*   0.25E-05     0.27E-01   0.17E+03   QNRc2DIIS    0.
  20  -538.159515274 -1529.670283066   704.076896175  -0.45E-09    0.91E-06    0.22E-06     0.38E-01   0.17E+03   QNRc2DIIS    0.

       Convergence after 20 Macro Iterations
--

 *****************************************************************************************************************************
 *                                                                                                                           *
 *                                             SCF/KS-DFT Program, Final results                                             *
 *                                                                                                                           *
 *                                                                                                                           *
 *                                                                                                                           *
 *                                                       Final Results                                                       *
 *                                                                                                                           *
 *****************************************************************************************************************************

::    Total SCF energy                               -538.1595152740
      One-electron energy                           -1529.6702830660
      Two-electron energy                             704.0768961753
      Nuclear repulsion energy                        287.4338716166
      Kinetic energy (interpolated)                   173.8399876401
      Virial theorem                                    3.0957176342
      Total spin, S(S+1)                                0.0000000000
      Total spin, S                                     0.0000000000
      Max non-diagonal density matrix element           0.0000007827
      Max non-diagonal Fock matrix element              0.0000000597


      All orbitals with orbital energies smaller than  E(LUMO)+0.5 are printed

++    Molecular orbitals:
      -------------------

      Title: SCF orbitals

      Molecular orbitals for symmetry species 1: a  

          Orbital            1         2         3         4         5         6         7         8         9        10    
          Energy           -4.7067   -4.7067   -4.6988   -4.6987   -2.7012   -2.7008   -2.6969   -2.6969   -2.6969   -2.6969
          Occ. No.          2.0000    2.0000    2.0000    2.0000    2.0000    2.0000    2.0000    2.0000    2.0000    2.0000

        1 AU1    6s        -0.7073    0.7072   -0.0060    0.0058   -0.0022    0.0029    0.0000    0.0000    0.0000    0.0000
        2 AU1    *s         0.0002   -0.0002    0.0000   -0.0002    0.0023   -0.0023    0.0000    0.0000    0.0000    0.0000
        3 AU1    *s         0.0021   -0.0020    0.0025   -0.0012   -0.0016   -0.0030    0.0000    0.0000    0.0000    0.0000
        4 AU1    *px        0.0050   -0.0050    0.0002   -0.0002   -0.6590    0.6871    0.0000    0.0000    0.0000    0.0000
        5 AU1    *px        0.0010   -0.0011    0.0018   -0.0013   -0.0112    0.0091    0.0000    0.0000    0.0000    0.0000
        6 AU1    *px        0.0004   -0.0003    0.0002   -0.0003    0.0027   -0.0026    0.0000    0.0000    0.0000    0.0000
        7 AU1    *py        0.0000    0.0000    0.0000    0.0000    0.0000    0.0000   -0.7045    0.0000    0.7045    0.0000
        8 AU1    *py        0.0000    0.0000    0.0000    0.0000    0.0000    0.0000   -0.0126    0.0000    0.0127    0.0000
        9 AU1    *py        0.0000    0.0000    0.0000    0.0000    0.0000    0.0000    0.0030    0.0000   -0.0031    0.0000
       10 AU1    *pz        0.0000    0.0000    0.0000    0.0000    0.0000    0.0000    0.0000   -0.7045    0.0000    0.7045
       11 AU1    *pz        0.0000    0.0000    0.0000    0.0000    0.0000    0.0000    0.0000   -0.0126    0.0000    0.0127
       12 AU1    *pz        0.0000    0.0000    0.0000    0.0000    0.0000    0.0000    0.0000    0.0030    0.0000   -0.0031
       13 AU1    5d2-       0.0000    0.0000    0.0000    0.0000    0.0000    0.0000    0.0041    0.0000   -0.0041    0.0000
       14 AU1    *d2-       0.0000    0.0000    0.0000    0.0000    0.0000    0.0000   -0.0008    0.0000    0.0008    0.0000
       15 AU1    5d1-       0.0000    0.0000    0.0000    0.0000    0.0000    0.0000    0.0000    0.0000    0.0000    0.0000
       16 AU1    *d1-       0.0000    0.0000    0.0000    0.0000    0.0000    0.0000    0.0000    0.0000    0.0000    0.0000
       17 AU1    5d0        0.0005   -0.0005   -0.0000    0.0000   -0.0021    0.0023    0.0000    0.0000    0.0000    0.0000
       18 AU1    *d0       -0.0004    0.0004   -0.0003    0.0003    0.0007   -0.0001    0.0000    0.0000    0.0000    0.0000
       19 AU1    5d1+       0.0000    0.0000    0.0000    0.0000    0.0000    0.0000    0.0000    0.0041    0.0000   -0.0041
       20 AU1    *d1+       0.0000    0.0000    0.0000    0.0000    0.0000    0.0000    0.0000   -0.0008    0.0000    0.0008
       21 AU1    5d2+      -0.0009    0.0009    0.0001   -0.0001    0.0036   -0.0039    0.0000    0.0000    0.0000    0.0000
       22 AU1    *d2+       0.0007   -0.0008    0.0006   -0.0005   -0.0012    0.0003    0.0000    0.0000    0.0000    0.0000
       23 AU2    6s        -0.0060    0.0056    0.7074   -0.7074   -0.0006   -0.0006    0.0000    0.0000    0.0000    0.0000
       24 AU2    *s        -0.0002   -0.0000   -0.0002    0.0005    0.0003    0.0006    0.0000    0.0000    0.0000    0.0000
       25 AU2    *s        -0.0002    0.0019   -0.0026    0.0056    0.0009    0.0056    0.0000    0.0000    0.0000    0.0000
       26 AU2    *px        0.0001   -0.0001    0.0048   -0.0045    0.2467   -0.1534    0.0000    0.0000    0.0000    0.0000
       27 AU2    *px        0.0017   -0.0010    0.0017    0.0014    0.0047   -0.0009    0.0000    0.0000    0.0000    0.0000
       28 AU2    *px        0.0009   -0.0008    0.0008    0.0007   -0.0034   -0.0009    0.0000    0.0000    0.0000    0.0000
       29 AU2    *py        0.0000    0.0000    0.0000    0.0000    0.0000    0.0000   -0.0124    0.0000    0.0130    0.0000
       30 AU2    *py        0.0000    0.0000    0.0000    0.0000    0.0000    0.0000    0.0001    0.0000   -0.0003    0.0000
       31 AU2    *py        0.0000    0.0000    0.0000    0.0000    0.0000    0.0000   -0.0006    0.0000    0.0007    0.0000
       32 AU2    *pz        0.0000    0.0000    0.0000    0.0000    0.0000    0.0000    0.0000   -0.0124    0.0000    0.0130
       33 AU2    *pz        0.0000    0.0000    0.0000    0.0000    0.0000    0.0000    0.0000    0.0001    0.0000   -0.0003
       34 AU2    *pz        0.0000    0.0000    0.0000    0.0000    0.0000    0.0000    0.0000   -0.0006    0.0000    0.0007
       35 AU2    5d2-       0.0000    0.0000    0.0000    0.0000    0.0000    0.0000   -0.0001    0.0000    0.0000    0.0000
       36 AU2    *d2-       0.0000    0.0000    0.0000    0.0000    0.0000    0.0000   -0.0003    0.0000    0.0003    0.0000
       37 AU2    5d1-       0.0000    0.0000    0.0000    0.0000    0.0000    0.0000    0.0000    0.0000    0.0000    0.0000
       38 AU2    *d1-       0.0000    0.0000    0.0000    0.0000    0.0000    0.0000    0.0000    0.0000    0.0000    0.0000
       39 AU2    5d0        0.0001   -0.0001   -0.0008    0.0007   -0.0006    0.0002    0.0000    0.0000    0.0000    0.0000
       40 AU2    *d0       -0.0000   -0.0001    0.0008   -0.0012    0.0003   -0.0024    0.0000    0.0000    0.0000    0.0000
       41 AU2    5d1+       0.0000    0.0000    0.0000    0.0000    0.0000    0.0000    0.0000   -0.0001    0.0000    0.0000
       42 AU2    *d1+       0.0000    0.0000    0.0000    0.0000    0.0000    0.0000    0.0000   -0.0003    0.0000    0.0003
       43 AU2    5d2+      -0.0001    0.0001    0.0015   -0.0013    0.0010   -0.0003    0.0000    0.0000    0.0000    0.0000
       44 AU2    *d2+       0.0000    0.0002   -0.0013    0.0021   -0.0006    0.0041    0.0000    0.0000    0.0000    0.0000
       45 AU3    6s         0.0060    0.0056    0.7074    0.7074   -0.0006    0.0006    0.0000    0.0000    0.0000    0.0000
       46 AU3    *s         0.0002   -0.0000   -0.0002   -0.0005    0.0003   -0.0006    0.0000    0.0000    0.0000    0.0000
       47 AU3    *s         0.0002    0.0019   -0.0026   -0.0056    0.0009   -0.0056    0.0000    0.0000    0.0000    0.0000
       48 AU3    *px        0.0001    0.0001   -0.0048   -0.0045   -0.2467   -0.1534    0.0000    0.0000    0.0000    0.0000
       49 AU3    *px        0.0017    0.0010   -0.0017    0.0014   -0.0047   -0.0009    0.0000    0.0000    0.0000    0.0000
       50 AU3    *px        0.0009    0.0008   -0.0008    0.0007    0.0034   -0.0009    0.0000    0.0000    0.0000    0.0000
       51 AU3    *py        0.0000    0.0000    0.0000    0.0000    0.0000    0.0000    0.0124    0.0000    0.0130    0.0000
       52 AU3    *py        0.0000    0.0000    0.0000    0.0000    0.0000    0.0000   -0.0001    0.0000   -0.0003    0.0000
       53 AU3    *py        0.0000    0.0000    0.0000    0.0000    0.0000    0.0000    0.0006    0.0000    0.0007    0.0000
       54 AU3    *pz        0.0000    0.0000    0.0000    0.0000    0.0000    0.0000    0.0000    0.0124    0.0000    0.0130
       55 AU3    *pz        0.0000    0.0000    0.0000    0.0000    0.0000    0.0000    0.0000   -0.0001    0.0000   -0.0003
       56 AU3    *pz        0.0000    0.0000    0.0000    0.0000    0.0000    0.0000    0.0000    0.0006    0.0000    0.0007
       57 AU3    5d2-       0.0000    0.0000    0.0000    0.0000    0.0000    0.0000   -0.0001    0.0000   -0.0000    0.0000
       58 AU3    *d2-       0.0000    0.0000    0.0000    0.0000    0.0000    0.0000   -0.0003    0.0000   -0.0003    0.0000
       59 AU3    5d1-       0.0000    0.0000    0.0000    0.0000    0.0000    0.0000    0.0000    0.0000    0.0000    0.0000
       60 AU3    *d1-       0.0000    0.0000    0.0000    0.0000    0.0000    0.0000    0.0000    0.0000    0.0000    0.0000
       61 AU3    5d0       -0.0001   -0.0001   -0.0008   -0.0007   -0.0006   -0.0002    0.0000    0.0000    0.0000    0.0000
       62 AU3    *d0        0.0000   -0.0001    0.0008    0.0012    0.0003    0.0024    0.0000    0.0000    0.0000    0.0000
       63 AU3    5d1+       0.0000    0.0000    0.0000    0.0000    0.0000    0.0000    0.0000   -0.0001    0.0000   -0.0000
       64 AU3    *d1+       0.0000    0.0000    0.0000    0.0000    0.0000    0.0000    0.0000   -0.0003    0.0000   -0.0003
       65 AU3    5d2+       0.0001    0.0001    0.0015    0.0013    0.0010    0.0003    0.0000    0.0000    0.0000    0.0000
       66 AU3    *d2+      -0.0000    0.0002   -0.0013   -0.0021   -0.0006   -0.0041    0.0000    0.0000    0.0000    0.0000
       67 AU4    6s         0.7073    0.7072   -0.0060   -0.0058   -0.0022   -0.0029    0.0000    0.0000    0.0000    0.0000
       68 AU4    *s        -0.0002   -0.0002    0.0000    0.0002    0.0023    0.0023    0.0000    0.0000    0.0000    0.0000
       69 AU4    *s        -0.0021   -0.0020    0.0025    0.0012   -0.0016    0.0030    0.0000    0.0000    0.0000    0.0000
       70 AU4    *px        0.0050    0.0050   -0.0002   -0.0002    0.6590    0.6871    0.0000    0.0000    0.0000    0.0000
       71 AU4    *px        0.0010    0.0011   -0.0018   -0.0013    0.0112    0.0091    0.0000    0.0000    0.0000    0.0000
       72 AU4    *px        0.0004    0.0003   -0.0002   -0.0003   -0.0027   -0.0026    0.0000    0.0000    0.0000    0.0000
       73 AU4    *py        0.0000    0.0000    0.0000    0.0000    0.0000    0.0000    0.7045    0.0000    0.7045    0.0000
       74 AU4    *py        0.0000    0.0000    0.0000    0.0000    0.0000    0.0000    0.0126    0.0000    0.0127    0.0000
       75 AU4    *py        0.0000    0.0000    0.0000    0.0000    0.0000    0.0000   -0.0030    0.0000   -0.0031    0.0000
       76 AU4    *pz        0.0000    0.0000    0.0000    0.0000    0.0000    0.0000    0.0000    0.7045    0.0000    0.7045
       77 AU4    *pz        0.0000    0.0000    0.0000    0.0000    0.0000    0.0000    0.0000    0.0126    0.0000    0.0127
       78 AU4    *pz        0.0000    0.0000    0.0000    0.0000    0.0000    0.0000    0.0000   -0.0030    0.0000   -0.0031
       79 AU4    5d2-       0.0000    0.0000    0.0000    0.0000    0.0000    0.0000    0.0041    0.0000    0.0041    0.0000
       80 AU4    *d2-       0.0000    0.0000    0.0000    0.0000    0.0000    0.0000   -0.0008    0.0000   -0.0008    0.0000
       81 AU4    5d1-       0.0000    0.0000    0.0000    0.0000    0.0000    0.0000    0.0000    0.0000    0.0000    0.0000
       82 AU4    *d1-       0.0000    0.0000    0.0000    0.0000    0.0000    0.0000    0.0000    0.0000    0.0000    0.0000
       83 AU4    5d0       -0.0005   -0.0005   -0.0000   -0.0000   -0.0021   -0.0023    0.0000    0.0000    0.0000    0.0000
       84 AU4    *d0        0.0004    0.0004   -0.0003   -0.0003    0.0007    0.0001    0.0000    0.0000    0.0000    0.0000
       85 AU4    5d1+       0.0000    0.0000    0.0000    0.0000    0.0000    0.0000    0.0000    0.0041    0.0000    0.0041
       86 AU4    *d1+       0.0000    0.0000    0.0000    0.0000    0.0000    0.0000    0.0000   -0.0008    0.0000   -0.0008
       87 AU4    5d2+       0.0009    0.0009    0.0001    0.0001    0.0036    0.0039    0.0000    0.0000    0.0000    0.0000
       88 AU4    *d2+      -0.0007   -0.0008    0.0006    0.0005   -0.0012   -0.0003    0.0000    0.0000    0.0000    0.0000

          Orbital           11        12        13        14        15        16        17        18        19        20    
          Energy           -2.6944   -2.6903   -2.6872   -2.6872   -2.6871   -2.6871   -0.5062   -0.4805   -0.4805   -0.4748
          Occ. No.          2.0000    2.0000    2.0000    2.0000    2.0000    2.0000    2.0000    2.0000    2.0000    2.0000

        1 AU1    6s        -0.0019    0.0013    0.0000    0.0000    0.0000   -0.0000   -0.0033    0.0000    0.0000    0.0039
        2 AU1    *s         0.0018   -0.0015    0.0000    0.0000    0.0000   -0.0000    0.0268    0.0000    0.0000   -0.0084
        3 AU1    *s         0.0042    0.0003    0.0000    0.0000    0.0000   -0.0000    0.0166    0.0000    0.0000    0.0025
        4 AU1    *px       -0.2496    0.1560    0.0000    0.0000    0.0000   -0.0000   -0.0190    0.0000    0.0000    0.0097
        5 AU1    *px       -0.0001    0.0017    0.0000    0.0000    0.0000   -0.0000    0.0092    0.0000    0.0000   -0.0062
        6 AU1    *px       -0.0000   -0.0003    0.0000    0.0000    0.0000   -0.0000   -0.0008    0.0000    0.0000    0.0027
        7 AU1    *py        0.0000    0.0000    0.0000   -0.0134    0.0128   -0.0000    0.0000    0.0030    0.0000    0.0000
        8 AU1    *py        0.0000    0.0000    0.0000   -0.0007    0.0007   -0.0000    0.0000   -0.0010    0.0000    0.0000
        9 AU1    *py        0.0000    0.0000    0.0000    0.0009   -0.0017   -0.0000    0.0000   -0.0001    0.0000    0.0000
       10 AU1    *pz        0.0000    0.0000   -0.0134    0.0000    0.0000   -0.0128    0.0000    0.0000    0.0030    0.0000
       11 AU1    *pz        0.0000    0.0000   -0.0007    0.0000    0.0000   -0.0007    0.0000    0.0000   -0.0010    0.0000
       12 AU1    *pz        0.0000    0.0000    0.0009    0.0000    0.0000    0.0017    0.0000    0.0000   -0.0001    0.0000
       13 AU1    5d2-       0.0000    0.0000    0.0000    0.0000   -0.0001   -0.0000    0.0000   -0.3720    0.0000    0.0000
       14 AU1    *d2-       0.0000    0.0000    0.0000   -0.0001    0.0002   -0.0000    0.0000   -0.0684    0.0000    0.0000
       15 AU1    5d1-       0.0000    0.0000    0.0000    0.0000    0.0000   -0.0000    0.0000    0.0000    0.0000    0.0000
       16 AU1    *d1-       0.0000    0.0000    0.0000    0.0000    0.0000   -0.0000    0.0000    0.0000    0.0000    0.0000
       17 AU1    5d0       -0.0012    0.0009    0.0000    0.0000    0.0000   -0.0000   -0.1662    0.0000    0.0000    0.2812
       18 AU1    *d0       -0.0012    0.0005    0.0000    0.0000    0.0000   -0.0000   -0.0301    0.0000    0.0000    0.0537
       19 AU1    5d1+       0.0000    0.0000    0.0000    0.0000    0.0000    0.0001    0.0000    0.0000   -0.3720    0.0000
       20 AU1    *d1+       0.0000    0.0000   -0.0001    0.0000    0.0000   -0.0002    0.0000    0.0000   -0.0684    0.0000
       21 AU1    5d2+       0.0020   -0.0015    0.0000    0.0000    0.0000   -0.0000    0.2878    0.0000    0.0000   -0.4870
       22 AU1    *d2+       0.0020   -0.0009    0.0000    0.0000    0.0000   -0.0000    0.0521    0.0000    0.0000   -0.0931
       23 AU2    6s         0.0044   -0.0026    0.0000    0.0000    0.0000   -0.0000   -0.0077    0.0000    0.0000    0.0028
       24 AU2    *s        -0.0028    0.0017    0.0000    0.0000    0.0000   -0.0000    0.0465    0.0000    0.0000   -0.0135
       25 AU2    *s        -0.0042    0.0019    0.0000    0.0000    0.0000   -0.0000    0.0432    0.0000    0.0000   -0.0132
       26 AU2    *px       -0.6584    0.6889    0.0000    0.0000    0.0000   -0.0000   -0.0125    0.0000    0.0000   -0.0289
       27 AU2    *px       -0.0079    0.0099    0.0000    0.0000    0.0000   -0.0000    0.0059    0.0000    0.0000    0.0192
       28 AU2    *px        0.0032    0.0003    0.0000    0.0000    0.0000   -0.0000   -0.0068    0.0000    0.0000   -0.0014
       29 AU2    *py        0.0000    0.0000    0.0000    0.7043   -0.7047   -0.0000    0.0000   -0.0058    0.0000    0.0000
       30 AU2    *py        0.0000    0.0000    0.0000    0.0126   -0.0136   -0.0000    0.0000    0.0086    0.0000    0.0000
       31 AU2    *py        0.0000    0.0000    0.0000   -0.0028    0.0061   -0.0000    0.0000   -0.0027    0.0000    0.0000
       32 AU2    *pz        0.0000    0.0000    0.7043    0.0000    0.0000    0.7047    0.0000    0.0000   -0.0058    0.0000
       33 AU2    *pz        0.0000    0.0000    0.0126    0.0000    0.0000    0.0136    0.0000    0.0000    0.0086    0.0000
       34 AU2    *pz        0.0000    0.0000   -0.0028    0.0000    0.0000   -0.0061    0.0000    0.0000   -0.0027    0.0000
       35 AU2    5d2-       0.0000    0.0000    0.0000    0.0037   -0.0038   -0.0000    0.0000    0.5042    0.0000    0.0000
       36 AU2    *d2-       0.0000    0.0000    0.0000   -0.0006    0.0005   -0.0000    0.0000    0.0965    0.0000    0.0000
       37 AU2    5d1-       0.0000    0.0000    0.0000    0.0000    0.0000   -0.0000    0.0000    0.0000    0.0000    0.0000
       38 AU2    *d1-       0.0000    0.0000    0.0000    0.0000    0.0000   -0.0000    0.0000    0.0000    0.0000    0.0000
       39 AU2    5d0        0.0024   -0.0018    0.0000    0.0000    0.0000   -0.0000   -0.2531    0.0000    0.0000    0.1464
       40 AU2    *d0        0.0013    0.0007    0.0000    0.0000    0.0000   -0.0000   -0.0533    0.0000    0.0000    0.0290
       41 AU2    5d1+       0.0000    0.0000    0.0037    0.0000    0.0000    0.0038    0.0000    0.0000    0.5042    0.0000
       42 AU2    *d1+       0.0000    0.0000   -0.0006    0.0000    0.0000   -0.0005    0.0000    0.0000    0.0965    0.0000
       43 AU2    5d2+      -0.0042    0.0032    0.0000    0.0000    0.0000   -0.0000    0.4383    0.0000    0.0000   -0.2536
       44 AU2    *d2+      -0.0023   -0.0012    0.0000    0.0000    0.0000   -0.0000    0.0922    0.0000    0.0000   -0.0502
       45 AU3    6s         0.0044    0.0026    0.0000    0.0000    0.0000   -0.0000   -0.0077    0.0000    0.0000   -0.0028
       46 AU3    *s        -0.0028   -0.0017    0.0000    0.0000    0.0000   -0.0000    0.0465    0.0000    0.0000    0.0135
       47 AU3    *s        -0.0042   -0.0019    0.0000    0.0000    0.0000   -0.0000    0.0432    0.0000    0.0000    0.0132
       48 AU3    *px        0.6584    0.6889    0.0000    0.0000    0.0000   -0.0000    0.0125    0.0000    0.0000   -0.0289
       49 AU3    *px        0.0079    0.0099    0.0000    0.0000    0.0000   -0.0000   -0.0059    0.0000    0.0000    0.0192
       50 AU3    *px       -0.0032    0.0003    0.0000    0.0000    0.0000   -0.0000    0.0068    0.0000    0.0000   -0.0014
       51 AU3    *py        0.0000    0.0000    0.0000    0.7043    0.7047   -0.0000    0.0000   -0.0058    0.0000    0.0000
       52 AU3    *py        0.0000    0.0000    0.0000    0.0126    0.0136   -0.0000    0.0000    0.0086    0.0000    0.0000
       53 AU3    *py        0.0000    0.0000    0.0000   -0.0028   -0.0061   -0.0000    0.0000   -0.0027    0.0000    0.0000
       54 AU3    *pz        0.0000    0.0000    0.7043    0.0000    0.0000   -0.7047    0.0000    0.0000   -0.0058    0.0000
       55 AU3    *pz        0.0000    0.0000    0.0126    0.0000    0.0000   -0.0136    0.0000    0.0000    0.0086    0.0000
       56 AU3    *pz        0.0000    0.0000   -0.0028    0.0000    0.0000    0.0061    0.0000    0.0000   -0.0027    0.0000
       57 AU3    5d2-       0.0000    0.0000    0.0000   -0.0037   -0.0038   -0.0000    0.0000   -0.5042    0.0000    0.0000
       58 AU3    *d2-       0.0000    0.0000    0.0000    0.0006    0.0005   -0.0000    0.0000   -0.0965    0.0000    0.0000
       59 AU3    5d1-       0.0000    0.0000    0.0000    0.0000    0.0000   -0.0000    0.0000    0.0000    0.0000    0.0000
       60 AU3    *d1-       0.0000    0.0000    0.0000    0.0000    0.0000   -0.0000    0.0000    0.0000    0.0000    0.0000
       61 AU3    5d0        0.0024    0.0018    0.0000    0.0000    0.0000   -0.0000   -0.2531    0.0000    0.0000   -0.1464
       62 AU3    *d0        0.0013   -0.0007    0.0000    0.0000    0.0000   -0.0000   -0.0533    0.0000    0.0000   -0.0290
       63 AU3    5d1+       0.0000    0.0000   -0.0037    0.0000    0.0000    0.0038    0.0000    0.0000   -0.5042    0.0000
       64 AU3    *d1+       0.0000    0.0000    0.0006    0.0000    0.0000   -0.0005    0.0000    0.0000   -0.0965    0.0000
       65 AU3    5d2+      -0.0042   -0.0032    0.0000    0.0000    0.0000   -0.0000    0.4383    0.0000    0.0000    0.2536
       66 AU3    *d2+      -0.0023    0.0012    0.0000    0.0000    0.0000   -0.0000    0.0922    0.0000    0.0000    0.0502
       67 AU4    6s        -0.0019   -0.0013    0.0000    0.0000    0.0000   -0.0000   -0.0033    0.0000    0.0000   -0.0039
       68 AU4    *s         0.0018    0.0015    0.0000    0.0000    0.0000   -0.0000    0.0268    0.0000    0.0000    0.0084
       69 AU4    *s         0.0042   -0.0003    0.0000    0.0000    0.0000   -0.0000    0.0166    0.0000    0.0000   -0.0025
       70 AU4    *px        0.2496    0.1560    0.0000    0.0000    0.0000   -0.0000    0.0190    0.0000    0.0000    0.0097
       71 AU4    *px        0.0001    0.0017    0.0000    0.0000    0.0000   -0.0000   -0.0092    0.0000    0.0000   -0.0062
       72 AU4    *px        0.0000   -0.0003    0.0000    0.0000    0.0000   -0.0000    0.0008    0.0000    0.0000    0.0027
       73 AU4    *py        0.0000    0.0000    0.0000   -0.0134   -0.0128   -0.0000    0.0000    0.0030    0.0000    0.0000
       74 AU4    *py        0.0000    0.0000    0.0000   -0.0007   -0.0007   -0.0000    0.0000   -0.0010    0.0000    0.0000
       75 AU4    *py        0.0000    0.0000    0.0000    0.0009    0.0017   -0.0000    0.0000   -0.0001    0.0000    0.0000
       76 AU4    *pz        0.0000    0.0000   -0.0134    0.0000    0.0000    0.0128    0.0000    0.0000    0.0030    0.0000
       77 AU4    *pz        0.0000    0.0000   -0.0007    0.0000    0.0000    0.0007    0.0000    0.0000   -0.0010    0.0000
       78 AU4    *pz        0.0000    0.0000    0.0009    0.0000    0.0000   -0.0017    0.0000    0.0000   -0.0001    0.0000
       79 AU4    5d2-       0.0000    0.0000    0.0000   -0.0000   -0.0001   -0.0000    0.0000    0.3720    0.0000    0.0000
       80 AU4    *d2-       0.0000    0.0000    0.0000    0.0001    0.0002   -0.0000    0.0000    0.0684    0.0000    0.0000
       81 AU4    5d1-       0.0000    0.0000    0.0000    0.0000    0.0000   -0.0000    0.0000    0.0000    0.0000    0.0000
       82 AU4    *d1-       0.0000    0.0000    0.0000    0.0000    0.0000   -0.0000    0.0000    0.0000    0.0000    0.0000
       83 AU4    5d0       -0.0012   -0.0009    0.0000    0.0000    0.0000   -0.0000   -0.1662    0.0000    0.0000   -0.2812
       84 AU4    *d0       -0.0012   -0.0005    0.0000    0.0000    0.0000   -0.0000   -0.0301    0.0000    0.0000   -0.0537
       85 AU4    5d1+       0.0000    0.0000   -0.0000    0.0000    0.0000    0.0001    0.0000    0.0000    0.3720    0.0000
       86 AU4    *d1+       0.0000    0.0000    0.0001    0.0000    0.0000   -0.0002    0.0000    0.0000    0.0684    0.0000
       87 AU4    5d2+       0.0020    0.0015    0.0000    0.0000    0.0000   -0.0000    0.2878    0.0000    0.0000    0.4870
       88 AU4    *d2+       0.0020    0.0009    0.0000    0.0000    0.0000   -0.0000    0.0521    0.0000    0.0000    0.0931

          Orbital           21        22        23        24        25        26        27        28        29        30    
          Energy           -0.4675   -0.4675   -0.4559   -0.4559   -0.4556   -0.4556   -0.4471   -0.4471   -0.4461   -0.4461
          Occ. No.          2.0000    2.0000    2.0000    2.0000    2.0000    2.0000    2.0000    2.0000    2.0000    2.0000

        1 AU1    6s         0.0000   -0.0000    0.0000   -0.0000    0.0000    0.0000    0.0000    0.0000    0.0000   -0.0000
        2 AU1    *s         0.0000   -0.0000    0.0000   -0.0000    0.0000    0.0000    0.0000    0.0000    0.0000    0.0000
        3 AU1    *s         0.0000   -0.0000    0.0000   -0.0000    0.0000   -0.0000    0.0000    0.0000    0.0000    0.0000
        4 AU1    *px        0.0000   -0.0000    0.0000   -0.0000    0.0000    0.0000    0.0000    0.0000    0.0000   -0.0000
        5 AU1    *px        0.0000   -0.0000    0.0000   -0.0000    0.0000    0.0000    0.0000    0.0000    0.0000    0.0000
        6 AU1    *px        0.0000   -0.0000    0.0000   -0.0000    0.0000   -0.0000    0.0000    0.0000    0.0000   -0.0000
        7 AU1    *py        0.0008   -0.0000    0.0000    0.0000    0.0000    0.0000    0.0000   -0.0090    0.0000    0.0000
        8 AU1    *py       -0.0030   -0.0000    0.0000    0.0000    0.0000    0.0000    0.0000    0.0113    0.0000    0.0000
        9 AU1    *py       -0.0012   -0.0000    0.0000    0.0000    0.0000    0.0000    0.0000   -0.0004    0.0000    0.0000
       10 AU1    *pz        0.0000   -0.0008    0.0000    0.0000    0.0000    0.0000   -0.0090    0.0000    0.0000    0.0000
       11 AU1    *pz        0.0000    0.0030    0.0000    0.0000    0.0000    0.0000    0.0113    0.0000    0.0000    0.0000
       12 AU1    *pz        0.0000    0.0012    0.0000    0.0000    0.0000    0.0000   -0.0004    0.0000    0.0000    0.0000
       13 AU1    5d2-       0.5719   -0.0000    0.0000    0.0000    0.0000    0.0000    0.0000   -0.5308    0.0000    0.0000
       14 AU1    *d2-       0.1076   -0.0000    0.0000    0.0000    0.0000    0.0000    0.0000   -0.1021    0.0000    0.0000
       15 AU1    5d1-       0.0000   -0.0000    0.6160    0.0000   -0.6360    0.0000    0.0000    0.0000   -0.2059    0.0000
       16 AU1    *d1-       0.0000   -0.0000    0.1146    0.0000   -0.1183    0.0000    0.0000    0.0000   -0.0380    0.0000
       17 AU1    5d0        0.0000   -0.0000    0.0000    0.5335    0.0000   -0.5508    0.0000    0.0000    0.0000   -0.1783
       18 AU1    *d0        0.0000   -0.0000    0.0000    0.0992    0.0000   -0.1025    0.0000    0.0000    0.0000   -0.0329
       19 AU1    5d1+       0.0000   -0.5719    0.0000    0.0000    0.0000    0.0000   -0.5308    0.0000    0.0000    0.0000
       20 AU1    *d1+       0.0000   -0.1076    0.0000    0.0000    0.0000    0.0000   -0.1021    0.0000    0.0000    0.0000
       21 AU1    5d2+       0.0000   -0.0000    0.0000    0.3080    0.0000   -0.3180    0.0000    0.0000    0.0000   -0.1030
       22 AU1    *d2+       0.0000   -0.0000    0.0000    0.0573    0.0000   -0.0592    0.0000    0.0000    0.0000   -0.0190
       23 AU2    6s         0.0000   -0.0000    0.0000   -0.0000    0.0000    0.0000    0.0000    0.0000    0.0000   -0.0000
       24 AU2    *s         0.0000   -0.0000    0.0000    0.0000    0.0000    0.0000    0.0000    0.0000    0.0000   -0.0000
       25 AU2    *s         0.0000   -0.0000    0.0000    0.0000    0.0000   -0.0000    0.0000    0.0000    0.0000    0.0000
       26 AU2    *px        0.0000   -0.0000    0.0000   -0.0000    0.0000   -0.0000    0.0000    0.0000    0.0000   -0.0000
       27 AU2    *px        0.0000   -0.0000    0.0000    0.0000    0.0000    0.0000    0.0000    0.0000    0.0000    0.0000
       28 AU2    *px        0.0000   -0.0000    0.0000   -0.0000    0.0000   -0.0000    0.0000    0.0000    0.0000    0.0000
       29 AU2    *py       -0.0083   -0.0000    0.0000    0.0000    0.0000    0.0000    0.0000    0.0151    0.0000    0.0000
       30 AU2    *py        0.0058   -0.0000    0.0000    0.0000    0.0000    0.0000    0.0000   -0.0171    0.0000    0.0000
       31 AU2    *py        0.0072   -0.0000    0.0000    0.0000    0.0000    0.0000    0.0000    0.0005    0.0000    0.0000
       32 AU2    *pz        0.0000    0.0083    0.0000    0.0000    0.0000    0.0000    0.0151    0.0000    0.0000    0.0000
       33 AU2    *pz        0.0000   -0.0058    0.0000    0.0000    0.0000    0.0000   -0.0171    0.0000    0.0000    0.0000
       34 AU2    *pz        0.0000   -0.0072    0.0000    0.0000    0.0000    0.0000    0.0005    0.0000    0.0000    0.0000
       35 AU2    5d2-      -0.2866   -0.0000    0.0000    0.0000    0.0000    0.0000    0.0000   -0.3806    0.0000    0.0000
       36 AU2    *d2-      -0.0533   -0.0000    0.0000    0.0000    0.0000    0.0000    0.0000   -0.0752    0.0000    0.0000
       37 AU2    5d1-       0.0000   -0.0000    0.1989    0.0000   -0.1264    0.0000    0.0000    0.0000    0.6143    0.0000
       38 AU2    *d1-       0.0000   -0.0000    0.0376    0.0000   -0.0236    0.0000    0.0000    0.0000    0.1158    0.0000
       39 AU2    5d0        0.0000   -0.0000    0.0000    0.1723    0.0000   -0.1095    0.0000    0.0000    0.0000    0.5320
       40 AU2    *d0        0.0000   -0.0000    0.0000    0.0326    0.0000   -0.0205    0.0000    0.0000    0.0000    0.1003
       41 AU2    5d1+       0.0000    0.2866    0.0000    0.0000    0.0000    0.0000   -0.3806    0.0000    0.0000    0.0000
       42 AU2    *d1+       0.0000    0.0533    0.0000    0.0000    0.0000    0.0000   -0.0752    0.0000    0.0000    0.0000
       43 AU2    5d2+       0.0000   -0.0000    0.0000    0.0995    0.0000   -0.0632    0.0000    0.0000    0.0000    0.3072
       44 AU2    *d2+       0.0000   -0.0000    0.0000    0.0188    0.0000   -0.0118    0.0000    0.0000    0.0000    0.0579
       45 AU3    6s         0.0000   -0.0000    0.0000   -0.0000    0.0000   -0.0000    0.0000    0.0000    0.0000   -0.0000
       46 AU3    *s         0.0000   -0.0000    0.0000    0.0000    0.0000   -0.0000    0.0000    0.0000    0.0000   -0.0000
       47 AU3    *s         0.0000   -0.0000    0.0000    0.0000    0.0000    0.0000    0.0000    0.0000    0.0000    0.0000
       48 AU3    *px        0.0000   -0.0000    0.0000    0.0000    0.0000   -0.0000    0.0000    0.0000    0.0000    0.0000
       49 AU3    *px        0.0000   -0.0000    0.0000   -0.0000    0.0000    0.0000    0.0000    0.0000    0.0000   -0.0000
       50 AU3    *px        0.0000   -0.0000    0.0000    0.0000    0.0000   -0.0000    0.0000    0.0000    0.0000   -0.0000
       51 AU3    *py        0.0083   -0.0000    0.0000    0.0000    0.0000    0.0000    0.0000    0.0151    0.0000    0.0000
       52 AU3    *py       -0.0058   -0.0000    0.0000    0.0000    0.0000    0.0000    0.0000   -0.0171    0.0000    0.0000
       53 AU3    *py       -0.0072   -0.0000    0.0000    0.0000    0.0000    0.0000    0.0000    0.0005    0.0000    0.0000
       54 AU3    *pz        0.0000   -0.0083    0.0000    0.0000    0.0000    0.0000    0.0151    0.0000    0.0000    0.0000
       55 AU3    *pz        0.0000    0.0058    0.0000    0.0000    0.0000    0.0000   -0.0171    0.0000    0.0000    0.0000
       56 AU3    *pz        0.0000    0.0072    0.0000    0.0000    0.0000    0.0000    0.0005    0.0000    0.0000    0.0000
       57 AU3    5d2-      -0.2866   -0.0000    0.0000    0.0000    0.0000    0.0000    0.0000    0.3806    0.0000    0.0000
       58 AU3    *d2-      -0.0533   -0.0000    0.0000    0.0000    0.0000    0.0000    0.0000    0.0752    0.0000    0.0000
       59 AU3    5d1-       0.0000   -0.0000    0.1989    0.0000    0.1264    0.0000    0.0000    0.0000    0.6143    0.0000
       60 AU3    *d1-       0.0000   -0.0000    0.0376    0.0000    0.0236    0.0000    0.0000    0.0000    0.1158    0.0000
       61 AU3    5d0        0.0000   -0.0000    0.0000    0.1723    0.0000    0.1095    0.0000    0.0000    0.0000    0.5320
       62 AU3    *d0        0.0000   -0.0000    0.0000    0.0326    0.0000    0.0205    0.0000    0.0000    0.0000    0.1003
       63 AU3    5d1+       0.0000    0.2866    0.0000    0.0000    0.0000    0.0000    0.3806    0.0000    0.0000    0.0000
       64 AU3    *d1+       0.0000    0.0533    0.0000    0.0000    0.0000    0.0000    0.0752    0.0000    0.0000    0.0000
       65 AU3    5d2+       0.0000   -0.0000    0.0000    0.0995    0.0000    0.0632    0.0000    0.0000    0.0000    0.3072
       66 AU3    *d2+       0.0000   -0.0000    0.0000    0.0188    0.0000    0.0118    0.0000    0.0000    0.0000    0.0579
       67 AU4    6s         0.0000   -0.0000    0.0000   -0.0000    0.0000   -0.0000    0.0000    0.0000    0.0000   -0.0000
       68 AU4    *s         0.0000   -0.0000    0.0000   -0.0000    0.0000   -0.0000    0.0000    0.0000    0.0000    0.0000
       69 AU4    *s         0.0000   -0.0000    0.0000   -0.0000    0.0000    0.0000    0.0000    0.0000    0.0000    0.0000
       70 AU4    *px        0.0000   -0.0000    0.0000    0.0000    0.0000    0.0000    0.0000    0.0000    0.0000    0.0000
       71 AU4    *px        0.0000   -0.0000    0.0000    0.0000    0.0000    0.0000    0.0000    0.0000    0.0000   -0.0000
       72 AU4    *px        0.0000   -0.0000    0.0000    0.0000    0.0000   -0.0000    0.0000    0.0000    0.0000    0.0000
       73 AU4    *py       -0.0008   -0.0000    0.0000    0.0000    0.0000    0.0000    0.0000   -0.0090    0.0000    0.0000
       74 AU4    *py        0.0030   -0.0000    0.0000    0.0000    0.0000    0.0000    0.0000    0.0113    0.0000    0.0000
       75 AU4    *py        0.0012   -0.0000    0.0000    0.0000    0.0000    0.0000    0.0000   -0.0004    0.0000    0.0000
       76 AU4    *pz        0.0000    0.0008    0.0000    0.0000    0.0000    0.0000   -0.0090    0.0000    0.0000    0.0000
       77 AU4    *pz        0.0000   -0.0030    0.0000    0.0000    0.0000    0.0000    0.0113    0.0000    0.0000    0.0000
       78 AU4    *pz        0.0000   -0.0012    0.0000    0.0000    0.0000    0.0000   -0.0004    0.0000    0.0000    0.0000
       79 AU4    5d2-       0.5719   -0.0000    0.0000    0.0000    0.0000    0.0000    0.0000    0.5308    0.0000    0.0000
       80 AU4    *d2-       0.1076   -0.0000    0.0000    0.0000    0.0000    0.0000    0.0000    0.1021    0.0000    0.0000
       81 AU4    5d1-       0.0000   -0.0000    0.6160    0.0000    0.6360    0.0000    0.0000    0.0000   -0.2059    0.0000
       82 AU4    *d1-       0.0000   -0.0000    0.1146    0.0000    0.1183    0.0000    0.0000    0.0000   -0.0380    0.0000
       83 AU4    5d0        0.0000   -0.0000    0.0000    0.5335    0.0000    0.5508    0.0000    0.0000    0.0000   -0.1783
       84 AU4    *d0        0.0000   -0.0000    0.0000    0.0992    0.0000    0.1025    0.0000    0.0000    0.0000   -0.0329
       85 AU4    5d1+       0.0000   -0.5719    0.0000    0.0000    0.0000    0.0000    0.5308    0.0000    0.0000    0.0000
       86 AU4    *d1+       0.0000   -0.1076    0.0000    0.0000    0.0000    0.0000    0.1021    0.0000    0.0000    0.0000
       87 AU4    5d2+       0.0000   -0.0000    0.0000    0.3080    0.0000    0.3180    0.0000    0.0000    0.0000   -0.1030
       88 AU4    *d2+       0.0000   -0.0000    0.0000    0.0573    0.0000    0.0592    0.0000    0.0000    0.0000   -0.0190

          Orbital           31        32        33        34        35        36        37        38        39        40    
          Energy           -0.4414   -0.4405   -0.4405   -0.4236   -0.4236   -0.4097   -0.2983   -0.2603   -0.0713    0.0071
          Occ. No.          2.0000    2.0000    2.0000    2.0000    2.0000    2.0000    2.0000    2.0000    0.0000    0.0000

        1 AU1    6s        -0.0014    0.0000    0.0000    0.0000    0.0000   -0.0007   -0.0061    0.0082   -0.0078    0.0011
        2 AU1    *s        -0.0300    0.0000    0.0000    0.0000    0.0000    0.0344    0.1536   -0.2138    0.2081   -0.1015
        3 AU1    *s        -0.0454    0.0000   -0.0000    0.0000    0.0000    0.0529    0.2677   -0.3780    0.4212   -0.1075
        4 AU1    *px        0.0135    0.0000   -0.0000    0.0000    0.0000   -0.0189   -0.0296    0.0356    0.0182   -0.0796
        5 AU1    *px       -0.0051    0.0000   -0.0000    0.0000    0.0000    0.0137    0.0468   -0.0449   -0.0664    0.1584
        6 AU1    *px       -0.0057    0.0000   -0.0000    0.0000    0.0000    0.0062    0.0018    0.0012   -0.0862    0.4991
        7 AU1    *py        0.0000    0.0000    0.0000    0.0107    0.0000    0.0000    0.0000    0.0000    0.0000    0.0000
        8 AU1    *py        0.0000    0.0000    0.0000   -0.0135    0.0000    0.0000    0.0000    0.0000    0.0000    0.0000
        9 AU1    *py        0.0000    0.0000    0.0000    0.0003    0.0000    0.0000    0.0000    0.0000    0.0000    0.0000
       10 AU1    *pz        0.0000    0.0000    0.0000    0.0000    0.0107    0.0000    0.0000    0.0000    0.0000    0.0000
       11 AU1    *pz        0.0000    0.0000    0.0000    0.0000   -0.0135    0.0000    0.0000    0.0000    0.0000    0.0000
       12 AU1    *pz        0.0000    0.0000    0.0000    0.0000    0.0003    0.0000    0.0000    0.0000    0.0000    0.0000
       13 AU1    5d2-       0.0000    0.0000    0.0000    0.3060    0.0000    0.0000    0.0000    0.0000    0.0000    0.0000
       14 AU1    *d2-       0.0000    0.0000    0.0000    0.0588    0.0000    0.0000    0.0000    0.0000    0.0000    0.0000
       15 AU1    5d1-       0.0000    0.1320    0.0000    0.0000    0.0000    0.0000    0.0000    0.0000    0.0000    0.0000
       16 AU1    *d1-       0.0000    0.0239    0.0000    0.0000    0.0000    0.0000    0.0000    0.0000    0.0000    0.0000
       17 AU1    5d0       -0.2740    0.0000    0.1143    0.0000    0.0000    0.1529    0.0305   -0.0280   -0.0227    0.0293
       18 AU1    *d0       -0.0550    0.0000    0.0207    0.0000    0.0000    0.0306    0.0011   -0.0022    0.0012   -0.0015
       19 AU1    5d1+       0.0000    0.0000    0.0000    0.0000    0.3060    0.0000    0.0000    0.0000    0.0000    0.0000
       20 AU1    *d1+       0.0000    0.0000    0.0000    0.0000    0.0588    0.0000    0.0000    0.0000    0.0000    0.0000
       21 AU1    5d2+       0.4746    0.0000    0.0660    0.0000    0.0000   -0.2648   -0.0529    0.0486    0.0394   -0.0508
       22 AU1    *d2+       0.0952    0.0000    0.0120    0.0000    0.0000   -0.0530   -0.0018    0.0038   -0.0021    0.0025
       23 AU2    6s         0.0019    0.0000    0.0000    0.0000    0.0000    0.0008   -0.0095    0.0052    0.0036   -0.0007
       24 AU2    *s         0.0119    0.0000    0.0000    0.0000    0.0000   -0.0561    0.2209   -0.1674   -0.1407    0.1505
       25 AU2    *s         0.0245    0.0000    0.0000    0.0000    0.0000   -0.0963    0.3633   -0.3127   -0.1959    0.2836
       26 AU2    *px        0.0346    0.0000   -0.0000    0.0000    0.0000    0.0053    0.0035   -0.0524    0.0857    0.0266
       27 AU2    *px       -0.0215    0.0000    0.0000    0.0000    0.0000   -0.0029   -0.0088    0.0852   -0.1574   -0.0172
       28 AU2    *px        0.0012    0.0000   -0.0000    0.0000    0.0000    0.0016   -0.0064    0.0123   -0.0758    0.2960
       29 AU2    *py        0.0000    0.0000    0.0000   -0.0004    0.0000    0.0000    0.0000    0.0000    0.0000    0.0000
       30 AU2    *py        0.0000    0.0000    0.0000    0.0039    0.0000    0.0000    0.0000    0.0000    0.0000    0.0000
       31 AU2    *py        0.0000    0.0000    0.0000   -0.0043    0.0000    0.0000    0.0000    0.0000    0.0000    0.0000
       32 AU2    *pz        0.0000    0.0000    0.0000    0.0000   -0.0004    0.0000    0.0000    0.0000    0.0000    0.0000
       33 AU2    *pz        0.0000    0.0000    0.0000    0.0000    0.0039    0.0000    0.0000    0.0000    0.0000    0.0000
       34 AU2    *pz        0.0000    0.0000    0.0000    0.0000   -0.0043    0.0000    0.0000    0.0000    0.0000    0.0000
       35 AU2    5d2-       0.0000    0.0000    0.0000    0.5971    0.0000    0.0000    0.0000    0.0000    0.0000    0.0000
       36 AU2    *d2-       0.0000    0.0000    0.0000    0.1152    0.0000    0.0000    0.0000    0.0000    0.0000    0.0000
       37 AU2    5d1-       0.0000   -0.6403    0.0000    0.0000    0.0000    0.0000    0.0000    0.0000    0.0000    0.0000
       38 AU2    *d1-       0.0000   -0.1186    0.0000    0.0000    0.0000    0.0000    0.0000    0.0000    0.0000    0.0000
       39 AU2    5d0        0.1727    0.0000   -0.5545    0.0000    0.0000   -0.2898    0.0650   -0.0092    0.0042   -0.0428
       40 AU2    *d0        0.0376    0.0000   -0.1027    0.0000    0.0000   -0.0573    0.0038    0.0026   -0.0004    0.0069
       41 AU2    5d1+       0.0000    0.0000    0.0000    0.0000    0.5971    0.0000    0.0000    0.0000    0.0000    0.0000
       42 AU2    *d1+       0.0000    0.0000    0.0000    0.0000    0.1152    0.0000    0.0000    0.0000    0.0000    0.0000
       43 AU2    5d2+      -0.2991    0.0000   -0.3202    0.0000    0.0000    0.5019   -0.1127    0.0159   -0.0073    0.0742
       44 AU2    *d2+      -0.0652    0.0000   -0.0593    0.0000    0.0000    0.0993   -0.0066   -0.0045    0.0007   -0.0120
       45 AU3    6s         0.0019    0.0000   -0.0000    0.0000    0.0000   -0.0008   -0.0095   -0.0052    0.0036    0.0007
       46 AU3    *s         0.0119    0.0000   -0.0000    0.0000    0.0000    0.0561    0.2209    0.1674   -0.1407   -0.1505
       47 AU3    *s         0.0245    0.0000   -0.0000    0.0000    0.0000    0.0963    0.3633    0.3127   -0.1959   -0.2836
       48 AU3    *px       -0.0346    0.0000    0.0000    0.0000    0.0000    0.0053   -0.0035   -0.0524   -0.0857    0.0266
       49 AU3    *px        0.0215    0.0000    0.0000    0.0000    0.0000   -0.0029    0.0088    0.0852    0.1574   -0.0172
       50 AU3    *px       -0.0012    0.0000   -0.0000    0.0000    0.0000    0.0016    0.0064    0.0123    0.0758    0.2960
       51 AU3    *py        0.0000    0.0000    0.0000    0.0004    0.0000    0.0000    0.0000    0.0000    0.0000    0.0000
       52 AU3    *py        0.0000    0.0000    0.0000   -0.0039    0.0000    0.0000    0.0000    0.0000    0.0000    0.0000
       53 AU3    *py        0.0000    0.0000    0.0000    0.0043    0.0000    0.0000    0.0000    0.0000    0.0000    0.0000
       54 AU3    *pz        0.0000    0.0000    0.0000    0.0000    0.0004    0.0000    0.0000    0.0000    0.0000    0.0000
       55 AU3    *pz        0.0000    0.0000    0.0000    0.0000   -0.0039    0.0000    0.0000    0.0000    0.0000    0.0000
       56 AU3    *pz        0.0000    0.0000    0.0000    0.0000    0.0043    0.0000    0.0000    0.0000    0.0000    0.0000
       57 AU3    5d2-       0.0000    0.0000    0.0000    0.5971    0.0000    0.0000    0.0000    0.0000    0.0000    0.0000
       58 AU3    *d2-       0.0000    0.0000    0.0000    0.1152    0.0000    0.0000    0.0000    0.0000    0.0000    0.0000
       59 AU3    5d1-       0.0000    0.6403    0.0000    0.0000    0.0000    0.0000    0.0000    0.0000    0.0000    0.0000
       60 AU3    *d1-       0.0000    0.1186    0.0000    0.0000    0.0000    0.0000    0.0000    0.0000    0.0000    0.0000
       61 AU3    5d0        0.1727    0.0000    0.5545    0.0000    0.0000    0.2898    0.0650    0.0092    0.0042    0.0428
       62 AU3    *d0        0.0376    0.0000    0.1027    0.0000    0.0000    0.0573    0.0038   -0.0026   -0.0004   -0.0069
       63 AU3    5d1+       0.0000    0.0000    0.0000    0.0000    0.5971    0.0000    0.0000    0.0000    0.0000    0.0000
       64 AU3    *d1+       0.0000    0.0000    0.0000    0.0000    0.1152    0.0000    0.0000    0.0000    0.0000    0.0000
       65 AU3    5d2+      -0.2991    0.0000    0.3202    0.0000    0.0000   -0.5019   -0.1127   -0.0159   -0.0073   -0.0742
       66 AU3    *d2+      -0.0652    0.0000    0.0593    0.0000    0.0000   -0.0993   -0.0066    0.0045    0.0007    0.0120
       67 AU4    6s        -0.0014    0.0000   -0.0000    0.0000    0.0000    0.0007   -0.0061   -0.0082   -0.0078   -0.0011
       68 AU4    *s        -0.0300    0.0000    0.0000    0.0000    0.0000   -0.0344    0.1536    0.2138    0.2081    0.1015
       69 AU4    *s        -0.0454    0.0000    0.0000    0.0000    0.0000   -0.0529    0.2677    0.3780    0.4212    0.1075
       70 AU4    *px       -0.0135    0.0000    0.0000    0.0000    0.0000   -0.0189    0.0296    0.0356   -0.0182   -0.0796
       71 AU4    *px        0.0051    0.0000   -0.0000    0.0000    0.0000    0.0137   -0.0468   -0.0449    0.0664    0.1584
       72 AU4    *px        0.0057    0.0000   -0.0000    0.0000    0.0000    0.0062   -0.0018    0.0012    0.0862    0.4991
       73 AU4    *py        0.0000    0.0000    0.0000   -0.0107    0.0000    0.0000    0.0000    0.0000    0.0000    0.0000
       74 AU4    *py        0.0000    0.0000    0.0000    0.0135    0.0000    0.0000    0.0000    0.0000    0.0000    0.0000
       75 AU4    *py        0.0000    0.0000    0.0000   -0.0003    0.0000    0.0000    0.0000    0.0000    0.0000    0.0000
       76 AU4    *pz        0.0000    0.0000    0.0000    0.0000   -0.0107    0.0000    0.0000    0.0000    0.0000    0.0000
       77 AU4    *pz        0.0000    0.0000    0.0000    0.0000    0.0135    0.0000    0.0000    0.0000    0.0000    0.0000
       78 AU4    *pz        0.0000    0.0000    0.0000    0.0000   -0.0003    0.0000    0.0000    0.0000    0.0000    0.0000
       79 AU4    5d2-       0.0000    0.0000    0.0000    0.3060    0.0000    0.0000    0.0000    0.0000    0.0000    0.0000
       80 AU4    *d2-       0.0000    0.0000    0.0000    0.0588    0.0000    0.0000    0.0000    0.0000    0.0000    0.0000
       81 AU4    5d1-       0.0000   -0.1320    0.0000    0.0000    0.0000    0.0000    0.0000    0.0000    0.0000    0.0000
       82 AU4    *d1-       0.0000   -0.0239    0.0000    0.0000    0.0000    0.0000    0.0000    0.0000    0.0000    0.0000
       83 AU4    5d0       -0.2740    0.0000   -0.1143    0.0000    0.0000   -0.1529    0.0305    0.0280   -0.0227   -0.0293
       84 AU4    *d0       -0.0550    0.0000   -0.0207    0.0000    0.0000   -0.0306    0.0011    0.0022    0.0012    0.0015
       85 AU4    5d1+       0.0000    0.0000    0.0000    0.0000    0.3060    0.0000    0.0000    0.0000    0.0000    0.0000
       86 AU4    *d1+       0.0000    0.0000    0.0000    0.0000    0.0588    0.0000    0.0000    0.0000    0.0000    0.0000
       87 AU4    5d2+       0.4746    0.0000   -0.0660    0.0000    0.0000    0.2648   -0.0529   -0.0486    0.0394    0.0508
       88 AU4    *d2+       0.0952    0.0000   -0.0120    0.0000    0.0000    0.0530   -0.0018   -0.0038   -0.0021   -0.0025

          Orbital           41        42        43        44        45        46        47        48        49        50    
          Energy            0.0345    0.0345    0.0502    0.0502    0.0615    0.0807    0.0807    0.0957    0.1210    0.1210
          Occ. No.          0.0000    0.0000    0.0000    0.0000    0.0000    0.0000    0.0000    0.0000    0.0000    0.0000

        1 AU1    6s        -0.0000    0.0000    0.0000   -0.0000   -0.0027    0.0000   -0.0000   -0.0114    0.0000    0.0000
        2 AU1    *s        -0.0000    0.0000    0.0000   -0.0000   -0.0318    0.0000   -0.0000    0.1996    0.0000    0.0000
        3 AU1    *s        -0.0000    0.0000    0.0000   -0.0000   -0.0474    0.0000   -0.0000    1.1294    0.0000    0.0000
        4 AU1    *px       -0.0000    0.0000    0.0000   -0.0000    0.0691    0.0000   -0.0000    0.0321    0.0000    0.0000
        5 AU1    *px       -0.0000    0.0000    0.0000   -0.0000   -0.0307    0.0000   -0.0000   -0.2412    0.0000    0.0000
        6 AU1    *px       -0.0000    0.0000    0.0000   -0.0000   -0.8406    0.0000   -0.0000    0.8379    0.0000    0.0000
        7 AU1    *py       -0.0000   -0.0532    0.0000   -0.0654    0.0000   -0.0387   -0.0000    0.0000   -0.0065    0.0000
        8 AU1    *py       -0.0000    0.0552    0.0000    0.0414    0.0000   -0.0160   -0.0000    0.0000    0.1133    0.0000
        9 AU1    *py       -0.0000    0.3459    0.0000    0.7129    0.0000    0.8619   -0.0000    0.0000   -1.1098    0.0000
       10 AU1    *pz        0.0532    0.0000    0.0654   -0.0000    0.0000    0.0000    0.0387    0.0000    0.0000   -0.0065
       11 AU1    *pz       -0.0552    0.0000   -0.0414   -0.0000    0.0000    0.0000    0.0160    0.0000    0.0000    0.1133
       12 AU1    *pz       -0.3459    0.0000   -0.7129   -0.0000    0.0000    0.0000   -0.8619    0.0000    0.0000   -1.1098
       13 AU1    5d2-      -0.0000   -0.0204    0.0000    0.0056    0.0000    0.0477   -0.0000    0.0000   -0.0649    0.0000
       14 AU1    *d2-      -0.0000   -0.0080    0.0000   -0.0020    0.0000    0.0060   -0.0000    0.0000   -0.0239    0.0000
       15 AU1    5d1-      -0.0000    0.0000    0.0000   -0.0000    0.0000    0.0000   -0.0000    0.0000    0.0000    0.0000
       16 AU1    *d1-      -0.0000    0.0000    0.0000   -0.0000    0.0000    0.0000   -0.0000    0.0000    0.0000    0.0000
       17 AU1    5d0       -0.0000    0.0000    0.0000   -0.0000    0.0089    0.0000   -0.0000   -0.0244    0.0000    0.0000
       18 AU1    *d0       -0.0000    0.0000    0.0000   -0.0000    0.0020    0.0000   -0.0000    0.0091    0.0000    0.0000
       19 AU1    5d1+       0.0204    0.0000   -0.0056   -0.0000    0.0000    0.0000   -0.0477    0.0000    0.0000   -0.0649
       20 AU1    *d1+       0.0080    0.0000    0.0020   -0.0000    0.0000    0.0000   -0.0060    0.0000    0.0000   -0.0239
       21 AU1    5d2+      -0.0000    0.0000    0.0000   -0.0000   -0.0154    0.0000   -0.0000    0.0423    0.0000    0.0000
       22 AU1    *d2+      -0.0000    0.0000    0.0000   -0.0000   -0.0035    0.0000   -0.0000   -0.0158    0.0000    0.0000
       23 AU2    6s        -0.0000    0.0000    0.0000   -0.0000   -0.0086    0.0000   -0.0000   -0.0014    0.0000    0.0000
       24 AU2    *s        -0.0000    0.0000    0.0000   -0.0000    0.0576    0.0000   -0.0000   -0.0946    0.0000    0.0000
       25 AU2    *s        -0.0000    0.0000    0.0000   -0.0000    0.4565    0.0000   -0.0000   -0.1233    0.0000    0.0000
       26 AU2    *px       -0.0000    0.0000    0.0000   -0.0000   -0.0835    0.0000   -0.0000   -0.0025    0.0000    0.0000
       27 AU2    *px       -0.0000    0.0000    0.0000   -0.0000    0.1322    0.0000   -0.0000   -0.0750    0.0000    0.0000
       28 AU2    *px       -0.0000    0.0000    0.0000   -0.0000    0.1248    0.0000   -0.0000    1.2126    0.0000    0.0000
       29 AU2    *py       -0.0000   -0.0662    0.0000   -0.0314    0.0000    0.0466   -0.0000    0.0000   -0.0581    0.0000
       30 AU2    *py       -0.0000    0.0777    0.0000    0.0523    0.0000   -0.0242   -0.0000    0.0000   -0.0117    0.0000
       31 AU2    *py       -0.0000    0.2660    0.0000   -0.0739    0.0000   -0.6471   -0.0000    0.0000    2.1732    0.0000
       32 AU2    *pz        0.0662    0.0000    0.0314   -0.0000    0.0000    0.0000   -0.0466    0.0000    0.0000   -0.0581
       33 AU2    *pz       -0.0777    0.0000   -0.0523   -0.0000    0.0000    0.0000    0.0242    0.0000    0.0000   -0.0117
       34 AU2    *pz       -0.2660    0.0000    0.0739   -0.0000    0.0000    0.0000    0.6471    0.0000    0.0000    2.1732
       35 AU2    5d2-      -0.0000   -0.0118    0.0000    0.0497    0.0000    0.0578   -0.0000    0.0000    0.0369    0.0000
       36 AU2    *d2-      -0.0000    0.0045    0.0000    0.0154    0.0000    0.0211   -0.0000    0.0000    0.0197    0.0000
       37 AU2    5d1-      -0.0000    0.0000    0.0000   -0.0000    0.0000    0.0000   -0.0000    0.0000    0.0000    0.0000
       38 AU2    *d1-      -0.0000    0.0000    0.0000   -0.0000    0.0000    0.0000   -0.0000    0.0000    0.0000    0.0000
       39 AU2    5d0       -0.0000    0.0000    0.0000   -0.0000    0.0068    0.0000   -0.0000    0.0528    0.0000    0.0000
       40 AU2    *d0       -0.0000    0.0000    0.0000   -0.0000    0.0136    0.0000   -0.0000   -0.0104    0.0000    0.0000
       41 AU2    5d1+       0.0118    0.0000   -0.0497   -0.0000    0.0000    0.0000   -0.0578    0.0000    0.0000    0.0369
       42 AU2    *d1+      -0.0045    0.0000   -0.0154   -0.0000    0.0000    0.0000   -0.0211    0.0000    0.0000    0.0197
       43 AU2    5d2+      -0.0000    0.0000    0.0000   -0.0000   -0.0117    0.0000   -0.0000   -0.0915    0.0000    0.0000
       44 AU2    *d2+      -0.0000    0.0000    0.0000   -0.0000   -0.0235    0.0000   -0.0000    0.0180    0.0000    0.0000
       45 AU3    6s        -0.0000    0.0000    0.0000   -0.0000   -0.0086    0.0000   -0.0000    0.0014    0.0000    0.0000
       46 AU3    *s        -0.0000    0.0000    0.0000   -0.0000    0.0576    0.0000   -0.0000    0.0946    0.0000    0.0000
       47 AU3    *s        -0.0000    0.0000    0.0000   -0.0000    0.4565    0.0000   -0.0000    0.1233    0.0000    0.0000
       48 AU3    *px       -0.0000    0.0000    0.0000   -0.0000    0.0835    0.0000   -0.0000   -0.0025    0.0000    0.0000
       49 AU3    *px       -0.0000    0.0000    0.0000   -0.0000   -0.1322    0.0000   -0.0000   -0.0750    0.0000    0.0000
       50 AU3    *px       -0.0000    0.0000    0.0000   -0.0000   -0.1248    0.0000   -0.0000    1.2126    0.0000    0.0000
       51 AU3    *py       -0.0000   -0.0662    0.0000    0.0314    0.0000    0.0466   -0.0000    0.0000    0.0581    0.0000
       52 AU3    *py       -0.0000    0.0777    0.0000   -0.0523    0.0000   -0.0242   -0.0000    0.0000    0.0117    0.0000
       53 AU3    *py       -0.0000    0.2660    0.0000    0.0739    0.0000   -0.6471   -0.0000    0.0000   -2.1732    0.0000
       54 AU3    *pz        0.0662    0.0000   -0.0314   -0.0000    0.0000    0.0000   -0.0466    0.0000    0.0000    0.0581
       55 AU3    *pz       -0.0777    0.0000    0.0523   -0.0000    0.0000    0.0000    0.0242    0.0000    0.0000    0.0117
       56 AU3    *pz       -0.2660    0.0000   -0.0739   -0.0000    0.0000    0.0000    0.6471    0.0000    0.0000   -2.1732
       57 AU3    5d2-      -0.0000    0.0118    0.0000    0.0497    0.0000   -0.0578   -0.0000    0.0000    0.0369    0.0000
       58 AU3    *d2-      -0.0000   -0.0045    0.0000    0.0154    0.0000   -0.0211   -0.0000    0.0000    0.0197    0.0000
       59 AU3    5d1-      -0.0000    0.0000    0.0000   -0.0000    0.0000    0.0000   -0.0000    0.0000    0.0000    0.0000
       60 AU3    *d1-      -0.0000    0.0000    0.0000   -0.0000    0.0000    0.0000   -0.0000    0.0000    0.0000    0.0000
       61 AU3    5d0       -0.0000    0.0000    0.0000   -0.0000    0.0068    0.0000   -0.0000   -0.0528    0.0000    0.0000
       62 AU3    *d0       -0.0000    0.0000    0.0000   -0.0000    0.0136    0.0000   -0.0000    0.0104    0.0000    0.0000
       63 AU3    5d1+      -0.0118    0.0000   -0.0497   -0.0000    0.0000    0.0000    0.0578    0.0000    0.0000    0.0369
       64 AU3    *d1+       0.0045    0.0000   -0.0154   -0.0000    0.0000    0.0000    0.0211    0.0000    0.0000    0.0197
       65 AU3    5d2+      -0.0000    0.0000    0.0000   -0.0000   -0.0117    0.0000   -0.0000    0.0915    0.0000    0.0000
       66 AU3    *d2+      -0.0000    0.0000    0.0000   -0.0000   -0.0235    0.0000   -0.0000   -0.0180    0.0000    0.0000
       67 AU4    6s        -0.0000    0.0000    0.0000   -0.0000   -0.0027    0.0000   -0.0000    0.0114    0.0000    0.0000
       68 AU4    *s        -0.0000    0.0000    0.0000   -0.0000   -0.0318    0.0000   -0.0000   -0.1996    0.0000    0.0000
       69 AU4    *s        -0.0000    0.0000    0.0000   -0.0000   -0.0474    0.0000   -0.0000   -1.1294    0.0000    0.0000
       70 AU4    *px       -0.0000    0.0000    0.0000   -0.0000   -0.0691    0.0000   -0.0000    0.0321    0.0000    0.0000
       71 AU4    *px       -0.0000    0.0000    0.0000   -0.0000    0.0307    0.0000   -0.0000   -0.2412    0.0000    0.0000
       72 AU4    *px       -0.0000    0.0000    0.0000   -0.0000    0.8406    0.0000   -0.0000    0.8379    0.0000    0.0000
       73 AU4    *py       -0.0000   -0.0532    0.0000    0.0654    0.0000   -0.0387   -0.0000    0.0000    0.0065    0.0000
       74 AU4    *py       -0.0000    0.0552    0.0000   -0.0414    0.0000   -0.0160   -0.0000    0.0000   -0.1133    0.0000
       75 AU4    *py       -0.0000    0.3459    0.0000   -0.7129    0.0000    0.8619   -0.0000    0.0000    1.1098    0.0000
       76 AU4    *pz        0.0532    0.0000   -0.0654   -0.0000    0.0000    0.0000    0.0387    0.0000    0.0000    0.0065
       77 AU4    *pz       -0.0552    0.0000    0.0414   -0.0000    0.0000    0.0000    0.0160    0.0000    0.0000   -0.1133
       78 AU4    *pz       -0.3459    0.0000    0.7129   -0.0000    0.0000    0.0000   -0.8619    0.0000    0.0000    1.1098
       79 AU4    5d2-      -0.0000    0.0204    0.0000    0.0056    0.0000   -0.0477   -0.0000    0.0000   -0.0649    0.0000
       80 AU4    *d2-      -0.0000    0.0080    0.0000   -0.0020    0.0000   -0.0060   -0.0000    0.0000   -0.0239    0.0000
       81 AU4    5d1-      -0.0000    0.0000    0.0000   -0.0000    0.0000    0.0000   -0.0000    0.0000    0.0000    0.0000
       82 AU4    *d1-      -0.0000    0.0000    0.0000   -0.0000    0.0000    0.0000   -0.0000    0.0000    0.0000    0.0000
       83 AU4    5d0       -0.0000    0.0000    0.0000   -0.0000    0.0089    0.0000   -0.0000    0.0244    0.0000    0.0000
       84 AU4    *d0       -0.0000    0.0000    0.0000   -0.0000    0.0020    0.0000   -0.0000   -0.0091    0.0000    0.0000
       85 AU4    5d1+      -0.0204    0.0000   -0.0056   -0.0000    0.0000    0.0000    0.0477    0.0000    0.0000   -0.0649
       86 AU4    *d1+      -0.0080    0.0000    0.0020   -0.0000    0.0000    0.0000    0.0060    0.0000    0.0000   -0.0239
       87 AU4    5d2+      -0.0000    0.0000    0.0000   -0.0000   -0.0154    0.0000   -0.0000   -0.0423    0.0000    0.0000
       88 AU4    *d2+      -0.0000    0.0000    0.0000   -0.0000   -0.0035    0.0000   -0.0000    0.0158    0.0000    0.0000

          Orbital           51        52        53        54        55        56        57        58        59        60    
          Energy            0.1304    0.1397    0.1925    0.1925    0.2004    0.2192    0.2192    0.2554    0.2554    0.2743
          Occ. No.          0.0000    0.0000    0.0000    0.0000    0.0000    0.0000    0.0000    0.0000    0.0000    0.0000

        1 AU1    6s         0.0019    0.0094    0.0000    0.0000    0.0029    0.0000    0.0000    0.0000    0.0000    0.0077
        2 AU1    *s        -0.0139   -0.1108    0.0000    0.0000    0.0108    0.0000    0.0000    0.0000    0.0000    0.0469
        3 AU1    *s        -0.5131   -0.8444    0.0000    0.0000    0.4455    0.0000    0.0000    0.0000    0.0000    0.0624
        4 AU1    *px        0.0165   -0.0898    0.0000    0.0000   -0.0875    0.0000    0.0000    0.0000    0.0000   -0.1383
        5 AU1    *px       -0.2378    0.4023    0.0000    0.0000    0.4492    0.0000    0.0000    0.0000    0.0000    0.8136
        6 AU1    *px        0.5929   -0.3987    0.0000    0.0000   -0.7186    0.0000    0.0000    0.0000    0.0000   -0.3833
        7 AU1    *py        0.0000    0.0000    0.0000   -0.0936    0.0000    0.0000    0.1408    0.0000    0.1227    0.0000
        8 AU1    *py        0.0000    0.0000    0.0000    0.5351    0.0000    0.0000   -0.8416    0.0000   -0.7900    0.0000
        9 AU1    *py        0.0000    0.0000    0.0000   -0.2832    0.0000    0.0000    0.4217    0.0000    0.7163    0.0000
       10 AU1    *pz        0.0000    0.0000   -0.0936    0.0000    0.0000    0.1408    0.0000    0.1227    0.0000    0.0000
       11 AU1    *pz        0.0000    0.0000    0.5351    0.0000    0.0000   -0.8416    0.0000   -0.7900    0.0000    0.0000
       12 AU1    *pz        0.0000    0.0000   -0.2832    0.0000    0.0000    0.4217    0.0000    0.7163    0.0000    0.0000
       13 AU1    5d2-       0.0000    0.0000    0.0000   -0.0308    0.0000    0.0000   -0.0055    0.0000   -0.0483    0.0000
       14 AU1    *d2-       0.0000    0.0000    0.0000   -0.0077    0.0000    0.0000    0.0239    0.0000    0.0356    0.0000
       15 AU1    5d1-       0.0000    0.0000    0.0000    0.0000    0.0000    0.0000    0.0000    0.0000    0.0000    0.0000
       16 AU1    *d1-       0.0000    0.0000    0.0000    0.0000    0.0000    0.0000    0.0000    0.0000    0.0000    0.0000
       17 AU1    5d0       -0.0411    0.0120    0.0000    0.0000    0.0305    0.0000    0.0000    0.0000    0.0000   -0.0533
       18 AU1    *d0       -0.0085   -0.0059    0.0000    0.0000    0.0436    0.0000    0.0000    0.0000    0.0000    0.0594
       19 AU1    5d1+       0.0000    0.0000   -0.0308    0.0000    0.0000   -0.0055    0.0000   -0.0483    0.0000    0.0000
       20 AU1    *d1+       0.0000    0.0000   -0.0077    0.0000    0.0000    0.0239    0.0000    0.0356    0.0000    0.0000
       21 AU1    5d2+       0.0712   -0.0207    0.0000    0.0000   -0.0529    0.0000    0.0000    0.0000    0.0000    0.0923
       22 AU1    *d2+       0.0148    0.0102    0.0000    0.0000   -0.0754    0.0000    0.0000    0.0000    0.0000   -0.1029
       23 AU2    6s         0.0064   -0.0005    0.0000    0.0000   -0.0007    0.0000    0.0000    0.0000    0.0000   -0.0059
       24 AU2    *s        -0.1571    0.1025    0.0000    0.0000   -0.0225    0.0000    0.0000    0.0000    0.0000   -0.1740
       25 AU2    *s        -1.1512    0.8652    0.0000    0.0000   -0.3051    0.0000    0.0000    0.0000    0.0000   -0.7541
       26 AU2    *px       -0.0123    0.0653    0.0000    0.0000    0.1150    0.0000    0.0000    0.0000    0.0000    0.0576
       27 AU2    *px        0.1911    0.0547    0.0000    0.0000   -0.6438    0.0000    0.0000    0.0000    0.0000   -0.2973
       28 AU2    *px       -1.2973   -1.1738    0.0000    0.0000    1.5142    0.0000    0.0000    0.0000    0.0000   -0.1331
       29 AU2    *py        0.0000    0.0000    0.0000   -0.1125    0.0000    0.0000    0.0499    0.0000   -0.0950    0.0000
       30 AU2    *py        0.0000    0.0000    0.0000    0.6531    0.0000    0.0000   -0.3472    0.0000    0.6063    0.0000
       31 AU2    *py        0.0000    0.0000    0.0000   -0.4172    0.0000    0.0000    0.5515    0.0000   -0.5485    0.0000
       32 AU2    *pz        0.0000    0.0000   -0.1125    0.0000    0.0000    0.0499    0.0000   -0.0950    0.0000    0.0000
       33 AU2    *pz        0.0000    0.0000    0.6531    0.0000    0.0000   -0.3472    0.0000    0.6063    0.0000    0.0000
       34 AU2    *pz        0.0000    0.0000   -0.4172    0.0000    0.0000    0.5515    0.0000   -0.5485    0.0000    0.0000
       35 AU2    5d2-       0.0000    0.0000    0.0000   -0.0160    0.0000    0.0000   -0.0694    0.0000   -0.1104    0.0000
       36 AU2    *d2-       0.0000    0.0000    0.0000    0.0082    0.0000    0.0000    0.0171    0.0000    0.0429    0.0000
       37 AU2    5d1-       0.0000    0.0000    0.0000    0.0000    0.0000    0.0000    0.0000    0.0000    0.0000    0.0000
       38 AU2    *d1-       0.0000    0.0000    0.0000    0.0000    0.0000    0.0000    0.0000    0.0000    0.0000    0.0000
       39 AU2    5d0        0.0172    0.0077    0.0000    0.0000   -0.0197    0.0000    0.0000    0.0000    0.0000    0.1012
       40 AU2    *d0       -0.0544    0.0314    0.0000    0.0000   -0.0136    0.0000    0.0000    0.0000    0.0000    0.0126
       41 AU2    5d1+       0.0000    0.0000   -0.0160    0.0000    0.0000   -0.0694    0.0000   -0.1104    0.0000    0.0000
       42 AU2    *d1+       0.0000    0.0000    0.0082    0.0000    0.0000    0.0171    0.0000    0.0429    0.0000    0.0000
       43 AU2    5d2+      -0.0298   -0.0133    0.0000    0.0000    0.0341    0.0000    0.0000    0.0000    0.0000   -0.1753
       44 AU2    *d2+       0.0943   -0.0543    0.0000    0.0000    0.0235    0.0000    0.0000    0.0000    0.0000   -0.0219
       45 AU3    6s        -0.0064   -0.0005    0.0000    0.0000   -0.0007    0.0000    0.0000    0.0000    0.0000    0.0059
       46 AU3    *s         0.1571    0.1025    0.0000    0.0000   -0.0225    0.0000    0.0000    0.0000    0.0000    0.1740
[...]
    49 AU3    *px        0.0000    0.0000    0.0000    0.0000   -0.1042   -0.0466    0.0000    0.0000   -0.0000    0.0000
    50 AU3    *px        0.0000    0.0000   -0.0000    0.0000   -0.0740    0.8788   -0.0000    0.0000    0.0000    0.0000
    51 AU3    *py        0.0000   -0.0653    0.0000    0.0311    0.0000    0.0000    0.0000    0.0474    0.0000    0.0575
    52 AU3    *py        0.0000    0.0749    0.0000   -0.0481    0.0000    0.0000    0.0000   -0.0259    0.0000    0.0149
    53 AU3    *py        0.0000    0.2626    0.0000    0.0557    0.0000    0.0000    0.0000   -0.6491    0.0000   -2.1769
    54 AU3    *pz        0.1514    0.0000   -0.0312    0.0000   -0.0000   -0.0000   -0.0273    0.0000    0.0575    0.0000
    55 AU3    *pz       -0.6037    0.0000    0.0484    0.0000    0.0000    0.0000    0.0937    0.0000    0.0145    0.0000
    56 AU3    *pz        0.0227    0.0000   -0.0553    0.0000    0.0000    0.0000    0.3575    0.0000   -2.1764    0.0000
    57 AU3    5d2-       0.0000    0.0080    0.0000    0.0511    0.0000    0.0000    0.0000   -0.0559    0.0000    0.0385
    58 AU3    *d2-       0.0000   -0.0032    0.0000    0.0152    0.0000    0.0000    0.0000   -0.0231    0.0000    0.0173
    59 AU3    5d1-       0.0000    0.0000    0.0000    0.0000    0.0000    0.0000    0.0000    0.0000    0.0000    0.0000
    60 AU3    *d1-       0.0000    0.0000    0.0000    0.0000    0.0000    0.0000    0.0000    0.0000    0.0000    0.0000
    61 AU3    5d0       -0.0000    0.0000   -0.0000    0.0000    0.0056   -0.0233   -0.0000    0.0000   -0.0000    0.0000
    62 AU3    *d0       -0.0000    0.0000   -0.0000    0.0000    0.0137    0.0079   -0.0000    0.0000   -0.0000    0.0000
    63 AU3    5d1+      -0.0472    0.0000   -0.0512    0.0000   -0.0000   -0.0000    0.0490    0.0000    0.0385    0.0000
    64 AU3    *d1+       0.0043    0.0000   -0.0152    0.0000   -0.0000    0.0000    0.0199    0.0000    0.0173    0.0000
    65 AU3    5d2+       0.0000    0.0000    0.0000    0.0000   -0.0100    0.0402    0.0000    0.0000    0.0000    0.0000
    66 AU3    *d2+       0.0000    0.0000   -0.0000    0.0000   -0.0238   -0.0137   -0.0000    0.0000    0.0000    0.0000
    67 AU4    6s        -0.0000    0.0000   -0.0000    0.0000   -0.0032    0.0065   -0.0000    0.0000    0.0000    0.0000
    68 AU4    *s        -0.0000    0.0000    0.0000    0.0000   -0.0077   -0.0908   -0.0000    0.0000   -0.0000    0.0000
    69 AU4    *s        -0.0000    0.0000    0.0000    0.0000   -0.0214   -0.7182   -0.0000    0.0000   -0.0000    0.0000
    70 AU4    *px        0.0000    0.0000   -0.0000    0.0000   -0.0707   -0.0337    0.0000    0.0000    0.0000    0.0000
    71 AU4    *px        0.0000    0.0000   -0.0000    0.0000    0.0436   -0.0494    0.0000    0.0000    0.0000    0.0000
    72 AU4    *px        0.0000    0.0000    0.0000    0.0000    0.8486    1.0172    0.0000    0.0000   -0.0000    0.0000
    73 AU4    *py        0.0000   -0.0536    0.0000    0.0657    0.0000    0.0000    0.0000   -0.0388    0.0000    0.0055
    74 AU4    *py        0.0000    0.0552    0.0000   -0.0438    0.0000    0.0000    0.0000   -0.0127    0.0000   -0.1096
    75 AU4    *py        0.0000    0.3523    0.0000   -0.7038    0.0000    0.0000    0.0000    0.8568    0.0000    1.1135
    76 AU4    *pz        0.0503    0.0000   -0.0657    0.0000   -0.0000   -0.0000    0.0518    0.0000    0.0055    0.0000
    77 AU4    *pz       -0.1558    0.0000    0.0439    0.0000    0.0000    0.0000    0.0248    0.0000   -0.1098    0.0000
    78 AU4    *pz       -0.0175    0.0000    0.7035    0.0000   -0.0000   -0.0000   -0.9214    0.0000    1.1137    0.0000
    79 AU4    5d2-       0.0000    0.0216    0.0000    0.0032    0.0000    0.0000    0.0000   -0.0465    0.0000   -0.0649
    80 AU4    *d2-       0.0000    0.0069    0.0000   -0.0006    0.0000    0.0000    0.0000   -0.0077    0.0000   -0.0243
    81 AU4    5d1-       0.0000    0.0000    0.0000    0.0000    0.0000    0.0000    0.0000    0.0000    0.0000    0.0000
    82 AU4    *d1-       0.0000    0.0000    0.0000    0.0000    0.0000    0.0000    0.0000    0.0000    0.0000    0.0000
    83 AU4    5d0        0.0000    0.0000    0.0000    0.0000    0.0051    0.0093    0.0000    0.0000   -0.0000    0.0000
    84 AU4    *d0        0.0000    0.0000   -0.0000    0.0000    0.0032   -0.0046   -0.0000    0.0000   -0.0000    0.0000
    85 AU4    5d1+      -0.0799    0.0000   -0.0032    0.0000    0.0000    0.0000    0.0368    0.0000   -0.0649    0.0000
    86 AU4    *d1+       0.0336    0.0000    0.0005    0.0000    0.0000   -0.0000    0.0010    0.0000   -0.0243    0.0000
    87 AU4    5d2+      -0.0000    0.0000   -0.0000    0.0000   -0.0089   -0.0161   -0.0000    0.0000    0.0000    0.0000
    88 AU4    *d2+      -0.0000    0.0000   -0.0000    0.0000   -0.0055    0.0078   -0.0000    0.0000    0.0000    0.0000


      Orbital                51        52        53
      Energy             0.1242    0.1326    0.1378
      Occ. No.           0.0000    0.0000    0.0000

     1 AU1    6s         0.0056    0.0000    0.0073
     2 AU1    *s        -0.0799   -0.0000   -0.0867
     3 AU1    *s        -0.8285   -0.0000   -0.8044
     4 AU1    *px       -0.0093   -0.0000   -0.0884
     5 AU1    *px       -0.0949   -0.0000    0.3743
     6 AU1    *px        0.3470   -0.0000   -0.3591
     7 AU1    *py        0.0000    0.0000    0.0000
     8 AU1    *py        0.0000    0.0000    0.0000
     9 AU1    *py        0.0000    0.0000    0.0000
    10 AU1    *pz       -0.0000   -0.0385    0.0000
    11 AU1    *pz        0.0000    0.2393   -0.0000
    12 AU1    *pz       -0.0000    0.0688   -0.0000
    13 AU1    5d2-       0.0000    0.0000    0.0000
    14 AU1    *d2-       0.0000    0.0000    0.0000
    15 AU1    5d1-       0.0000    0.0000    0.0000
    16 AU1    *d1-       0.0000    0.0000    0.0000
    17 AU1    5d0       -0.0297    0.0000    0.0107
    18 AU1    *d0       -0.0108    0.0000   -0.0070
    19 AU1    5d1+      -0.0000   -0.0051   -0.0000
    20 AU1    *d1+      -0.0000    0.0135    0.0000
    21 AU1    5d2+       0.0513   -0.0000   -0.0185
    22 AU1    *d2+       0.0188   -0.0000    0.0120
    23 AU2    6s         0.0058    0.0000   -0.0004
    24 AU2    *s        -0.1073    0.0000    0.0902
    25 AU2    *s        -1.0475    0.0000    0.8437
    26 AU2    *px       -0.0049    0.0000    0.0771
    27 AU2    *px        0.1936   -0.0000    0.0308
    28 AU2    *px       -1.5669   -0.0000   -1.2059
    29 AU2    *py        0.0000    0.0000    0.0000
    30 AU2    *py        0.0000    0.0000    0.0000
    31 AU2    *py        0.0000    0.0000    0.0000
    32 AU2    *pz       -0.0000   -0.0438   -0.0000
    33 AU2    *pz       -0.0000    0.5213    0.0000
    34 AU2    *pz        0.0000   -0.7905    0.0000
    35 AU2    5d2-       0.0000    0.0000    0.0000
    36 AU2    *d2-       0.0000    0.0000    0.0000
    37 AU2    5d1-       0.0000    0.0000    0.0000
    38 AU2    *d1-       0.0000    0.0000    0.0000
    39 AU2    5d0       -0.0014   -0.0000    0.0082
    40 AU2    *d0       -0.0455   -0.0000    0.0300
    41 AU2    5d1+       0.0000    0.0056   -0.0000
    42 AU2    *d1+       0.0000    0.0151   -0.0000
    43 AU2    5d2+       0.0023    0.0000   -0.0140
    44 AU2    *d2+       0.0786    0.0000   -0.0519
    45 AU3    6s        -0.0058   -0.0000   -0.0004
    46 AU3    *s         0.1073   -0.0000    0.0902
    47 AU3    *s         1.0475   -0.0000    0.8437
    48 AU3    *px       -0.0049    0.0000   -0.0771
    49 AU3    *px        0.1936   -0.0000   -0.0308
    50 AU3    *px       -1.5669   -0.0000    1.2059
    51 AU3    *py        0.0000    0.0000    0.0000
    52 AU3    *py        0.0000    0.0000    0.0000
    53 AU3    *py        0.0000    0.0000    0.0000
    54 AU3    *pz        0.0000   -0.0438   -0.0000
    55 AU3    *pz        0.0000    0.5213    0.0000
    56 AU3    *pz       -0.0000   -0.7905   -0.0000
    57 AU3    5d2-       0.0000    0.0000    0.0000
    58 AU3    *d2-       0.0000    0.0000    0.0000
    59 AU3    5d1-       0.0000    0.0000    0.0000
    60 AU3    *d1-       0.0000    0.0000    0.0000
    61 AU3    5d0        0.0014    0.0000    0.0082
    62 AU3    *d0        0.0455    0.0000    0.0300
    63 AU3    5d1+       0.0000   -0.0056    0.0000
    64 AU3    *d1+       0.0000   -0.0151   -0.0000
    65 AU3    5d2+      -0.0023   -0.0000   -0.0140
    66 AU3    *d2+      -0.0786   -0.0000   -0.0519
    67 AU4    6s        -0.0056    0.0000    0.0073
    68 AU4    *s         0.0799    0.0000   -0.0867
    69 AU4    *s         0.8285    0.0000   -0.8044
    70 AU4    *px       -0.0093   -0.0000    0.0884
    71 AU4    *px       -0.0949   -0.0000   -0.3743
    72 AU4    *px        0.3470   -0.0000    0.3591
    73 AU4    *py        0.0000    0.0000    0.0000
    74 AU4    *py        0.0000    0.0000    0.0000
    75 AU4    *py        0.0000    0.0000    0.0000
    76 AU4    *pz        0.0000   -0.0385    0.0000
    77 AU4    *pz       -0.0000    0.2393   -0.0000
    78 AU4    *pz        0.0000    0.0688    0.0000
    79 AU4    5d2-       0.0000    0.0000    0.0000
    80 AU4    *d2-       0.0000    0.0000    0.0000
    81 AU4    5d1-       0.0000    0.0000    0.0000
    82 AU4    *d1-       0.0000    0.0000    0.0000
    83 AU4    5d0        0.0297   -0.0000    0.0107
    84 AU4    *d0        0.0108   -0.0000   -0.0070
    85 AU4    5d1+      -0.0000    0.0051    0.0000
    86 AU4    *d1+      -0.0000   -0.0135    0.0000
    87 AU4    5d2+      -0.0513    0.0000   -0.0185
    88 AU4    *d2+      -0.0188    0.0000    0.0120
--

      Von Neumann Entropy (Root   1) =  0.70605


      Mulliken population analysis for root number:  1
      -----------------------------------------------


++    Molecular charges:
      ------------------

      Mulliken charges per centre and basis function type
      ---------------------------------------------------

                AU1     AU2     AU3     AU4   
      6s       2.0005  2.0009  2.0009  2.0005
      5d2+     1.7954  1.7766  1.7766  1.7954
      5d1+     1.8094  1.8044  1.8044  1.8094
      5d0      1.8076  1.8008  1.8008  1.8076
      5d1-     1.8136  1.8127  1.8127  1.8136
      5d2-     1.8093  1.8044  1.8044  1.8093
      *s       0.9614  1.0361  1.0361  0.9614
      *px      2.0225  2.0196  2.0196  2.0225
      *pz      2.0032  2.0073  2.0073  2.0032
      *py      2.0030  2.0051  2.0051  2.0030
      *d2+     0.1920  0.2033  0.2033  0.1920
      *d1+     0.1881  0.1901  0.1901  0.1881
      *d0      0.1883  0.1925  0.1925  0.1883
      *d1-     0.1864  0.1872  0.1872  0.1864
      *d2-     0.1882  0.1901  0.1901  0.1882
      Total   18.9688 19.0312 19.0312 18.9688

      N-E      0.0312 -0.0312 -0.0312  0.0312

      Total electronic charge=   76.000000

      Total            charge=   -0.000000
--



      Expectation values of various properties for root number:  1
      -----------------------------------------------------------


++    Molecular properties:
      ---------------------

      Charge (e):
                      =   -0.0000
      Dipole Moment (Debye):
      Origin of the operator (Ang)=    0.0000    0.0000    0.0000
                   X= -3.5444E-08               Y=  0.0000E+00               Z= -1.8822E-15           Total=  3.5444E-08
      Quadrupole Moment (Debye*Ang):
      Origin of the operator (Ang)=   -4.3200    0.0000    0.0000
                  XX= -6.5890E+01              XY=  1.6192E-27              XZ= -8.9129E-16              YY= -9.3339E+01
                  YZ= -9.9728E-33              ZZ= -9.3380E+01
      In traceless form (Debye*Ang)
                  XX=  2.7469E+01              XY=  2.4288E-27              XZ= -1.3369E-15              YY= -1.3704E+01
                  YZ= -1.4959E-32              ZZ= -1.3765E+01
--


      Input file to MOLDEN was generated!

      Average orbitals are written to the RASORB file
      Natural orbitals for root   1 are written to the RASORB.1 file
      Spin density orbitals for root   1 are written to the SPDORB.1 file

--- Stop Module: rasscf at Wed Aug 31 15:43:21 2022 /rc=_RC_ALL_IS_WELL_ ---
*** files: au_elec.rasscf.molden au_elec.RasOrb.1 au_elec.RasOrb au_elec.rasscf.h5 au_elec.SpdOrb.1 xmldump
    saved to directory /home/hoy/software/pyRUQT/example/elec_example
--- Module rasscf spent 4 seconds ---

*** symbolic link created: INPORB -> au_elec.RasOrb
--- Start Module: mcpdft at Wed Aug 31 15:43:21 2022 ---

()()()()()()()()()()()()()()()()()()()()()()()()()()()()()()()()()()()()()()()()()()()()()()()()()()

                                              &MCPDFT

                                   only a single process is used
                       available to each process: 80 GB of memory, 4 threads
                                             pid: 17049
()()()()()()()()()()()()()()()()()()()()()()()()()()()()()()()()()()()()()()()()()()()()()()()()()()


      Header of the ONEINT file:
      --------------------------
      
      Integrals generated by Gateway/Seward, Wed Aug 31 15:43:11 2022


      OrdInt status: non-squared


      Cartesian coordinates in Angstrom:
      -----------------------------------------------------
      No.  Label        X            Y            Z        
      -----------------------------------------------------
       1   AU1       -8.64000000   0.00000000   0.00000000
       2   AU2       -5.76000000   0.00000000   0.00000000
       3   AU3       -2.88000000   0.00000000   0.00000000
       4   AU4        0.00000000   0.00000000   0.00000000
      -----------------------------------------------------
      Nuclear repulsion energy =  287.43387162

++    Wave function specifications:
      -----------------------------

      Number of closed shell electrons          70
      Number of electrons in active shells       6
      Max number of holes in RAS1 space          0
      Max nr of electrons in RAS3 space          0
      Number of inactive orbitals               35
      Number of active orbitals                  6
      Number of secondary orbitals              47
      Spin quantum number                      0.0
      State symmetry                             1
--

++    Orbital specifications:
      -----------------------

      Symmetry species                           1
                                                 a
      Frozen orbitals                            0
      Inactive orbitals                         35
      Active orbitals                            6
      RAS1 orbitals                              0
      RAS2 orbitals                              6
      RAS3 orbitals                              0
      Secondary orbitals                        47
      Deleted orbitals                           0
      Number of basis functions                 88
--

++    CI expansion specifications:
      ----------------------------

      Number of CSFs                             0
      Number of determinants                     0
      Number of root(s) required                 1
      Root chosen for geometry opt.              1
      CI root used                               1
      highest root included in the CI            1
      max. size of the explicit Hamiltonian    200
--

++    Optimization specifications:
      ----------------------------

      RASSCF algorithm: Conventional
      This is a MC-PDFT calculation with functional: T:PBE                                                                           
      Exchange scaling factor                0.100E+01
      Correlation scaling factor             0.100E+01
      Potentials are computed for gradients
      Maximum number of macro iterations       200
      Maximum number of SX iterations          100
      Threshold for RASSCF energy            0.100E-07
      Threshold for max MO rotation          0.100E+00
      Threshold for max BLB element          0.100E-03
      Level shift parameter                  0.500E+00
      Make Quasi-Newton update
--


      Numerical integration parameters
      --------------------------------
      Radial quadrature type:                         MHL       
      Size of radial grid:                            75
      Lebedev angular grid:                           29
      Angular grid prunned with the crowding factor:  3.00E+00
                                  and fading factor:  6.00E+00
      Screening threshold for integral computation:   1.00E-11
      Radial quadrature accuracy:                     1.00E-25
      Maximum batch size:                             128
      AO values are stored on disk

      DFT functional specifications
      -----------------------------
      Using Libxc version: 5.2.2
      Please cite the following reference:
      S. Lehtola, C. Steigemann, M. J. Oliveira, and M. A. Marques, SoftwareX 7, 1 (2018) doi:10.1016/j.softx.2017.11.002

      * Perdew, Burke & Ernzerhof
        - J. P. Perdew, K. Burke, and M. Ernzerhof, Phys. Rev. Lett. 77, 3865 (1996) doi:10.1103/PhysRevLett.77.3865
        - J. P. Perdew, K. Burke, and M. Ernzerhof, Phys. Rev. Lett. 78, 1396 (1997) doi:10.1103/PhysRevLett.78.1396
      * Perdew, Burke & Ernzerhof
        - J. P. Perdew, K. Burke, and M. Ernzerhof, Phys. Rev. Lett. 77, 3865 (1996) doi:10.1103/PhysRevLett.77.3865
        - J. P. Perdew, K. Burke, and M. Ernzerhof, Phys. Rev. Lett. 78, 1396 (1997) doi:10.1103/PhysRevLett.78.1396

   File JOBOLD not found -- use JOBIPH.
      The MO-coefficients are taken from the file:
      JOBIPH
      Title:(No title given)                                                        

      ********************************************************************************
      ********************************************************************************
      **                          MC-PDFT RESULTS, STATE 0001                         ** 
      ********************************************************************************
      MCSCF reference energy                                             -538.19346011

      Integrated total density:                                                 76.000
      Integrated alpha density before functional transformation:                38.000
      Integrated  beta density before functional transformation:                38.000
      Integrated alpha density  after functional transformation:                39.130
      Integrated  beta density  after functional transformation:                36.870
      NOTE:
      Densities after transformation are intermediate quantities
      and should not be interpreted as real spin densities

      Exchange energy scaling factor                                          1.000000
      Correlation energy scaling factor                                       1.000000

      Integrated alpha exchange energy                                      -24.335493
      Integrated beta  exchange energy                                      -23.495072
      Integrated  correlation   energy                                       -3.288131

      Nuclear Repulsion energy                                            287.43387162
      Core energy                                                        -488.31283521
      CASSCF contribution energy                                         -490.66261158
      On-top energy                                                       -51.11869593

      Total MC-PDFT energy for state     1                               -541.78130751

      ********************************************************************************

 Calculating potentials for analytic gradients...

--- Stop Module: mcpdft at Wed Aug 31 15:43:23 2022 /rc=_RC_ALL_IS_WELL_ ---
*** files: xmldump
    saved to directory /home/hoy/software/pyRUQT/example/elec_example
--- Module mcpdft spent 2 seconds ---

.##################.
.# Happy landing! #.
.##################.

    Timing: Wall=12.05 User=11.02 System=21.30
