[Molden Format]
[N_Atoms]
                    4
[Atoms] (AU)
AU1         1     79         -16.32723372      0.00000000      0.00000000
AU2         2     79         -10.88482248      0.00000000      0.00000000
AU3         3     79          -5.44241124      0.00000000      0.00000000
AU4         4     79           0.00000000      0.00000000      0.00000000
[5D]
[Charge] (Mulliken)
   3.1160982980036778E-002
  -3.1160983416473442E-002
  -3.1160978754829927E-002
   3.1160979190801186E-002
[GTO] (AU)
   1
   s   3
  0.280900000E+01 -0.120215564E+01
  0.159500000E+01  0.167415786E+01
  0.532700000E+00  0.352659312E+00
   s   4
  0.280900000E+01  0.116084804E+01
  0.159500000E+01 -0.186428451E+01
  0.532700000E+00 -0.103562295E+01
  0.282600000E+00  0.130643983E+01
   s   1
  0.598000000E-01  0.100000000E+01
   p   3
  0.368400000E+01 -0.280268082E+00
  0.166600000E+01  0.781839749E+00
  0.598900000E+00  0.480477568E+00
   p   2
  0.683800000E+00 -0.952078005E-01
  0.977000000E-01  0.102991471E+01
   p   1
  0.279000000E-01  0.100000000E+01
   d   2
  0.128700000E+01  0.584427277E+00
  0.433500000E+00  0.529816079E+00
   d   1
  0.139600000E+00  0.100000000E+01
 
   2
   s   3
  0.280900000E+01 -0.120215564E+01
  0.159500000E+01  0.167415786E+01
  0.532700000E+00  0.352659312E+00
   s   4
  0.280900000E+01  0.116084804E+01
  0.159500000E+01 -0.186428451E+01
  0.532700000E+00 -0.103562295E+01
  0.282600000E+00  0.130643983E+01
   s   1
  0.598000000E-01  0.100000000E+01
   p   3
  0.368400000E+01 -0.280268082E+00
  0.166600000E+01  0.781839749E+00
  0.598900000E+00  0.480477568E+00
   p   2
  0.683800000E+00 -0.952078005E-01
  0.977000000E-01  0.102991471E+01
   p   1
  0.279000000E-01  0.100000000E+01
   d   2
  0.128700000E+01  0.584427277E+00
  0.433500000E+00  0.529816079E+00
   d   1
  0.139600000E+00  0.100000000E+01
 
   3
   s   3
  0.280900000E+01 -0.120215564E+01
  0.159500000E+01  0.167415786E+01
  0.532700000E+00  0.352659312E+00
   s   4
  0.280900000E+01  0.116084804E+01
  0.159500000E+01 -0.186428451E+01
  0.532700000E+00 -0.103562295E+01
  0.282600000E+00  0.130643983E+01
   s   1
  0.598000000E-01  0.100000000E+01
   p   3
  0.368400000E+01 -0.280268082E+00
  0.166600000E+01  0.781839749E+00
  0.598900000E+00  0.480477568E+00
   p   2
  0.683800000E+00 -0.952078005E-01
  0.977000000E-01  0.102991471E+01
   p   1
  0.279000000E-01  0.100000000E+01
   d   2
  0.128700000E+01  0.584427277E+00
  0.433500000E+00  0.529816079E+00
   d   1
  0.139600000E+00  0.100000000E+01
 
   4
   s   3
  0.280900000E+01 -0.120215564E+01
  0.159500000E+01  0.167415786E+01
  0.532700000E+00  0.352659312E+00
   s   4
  0.280900000E+01  0.116084804E+01
  0.159500000E+01 -0.186428451E+01
  0.532700000E+00 -0.103562295E+01
  0.282600000E+00  0.130643983E+01
   s   1
  0.598000000E-01  0.100000000E+01
   p   3
  0.368400000E+01 -0.280268082E+00
  0.166600000E+01  0.781839749E+00
  0.598900000E+00  0.480477568E+00
   p   2
  0.683800000E+00 -0.952078005E-01
  0.977000000E-01  0.102991471E+01
   p   1
  0.279000000E-01  0.100000000E+01
   d   2
  0.128700000E+01  0.584427277E+00
  0.433500000E+00  0.529816079E+00
   d   1
  0.139600000E+00  0.100000000E+01
 
[MO]
Sym=     1a  
Ene=    -4.7068
Spin= Alpha
Occup=    2.00000
   1        -0.70730406
   2        -0.00018489
   3         0.00135983
   4         0.00364447
   5         0.00000000
   6        -0.00000000
   7         0.00085848
   8         0.00000000
   9         0.00000000
  10         0.00042704
  11         0.00000000
  12         0.00000000
  13         0.00043920
  14         0.00000000
  15         0.00000000
  16        -0.00077403
  17         0.00000000
  18        -0.00037398
  19        -0.00000000
  20         0.00000000
  21         0.00064857
  22         0.00000000
  23        -0.00469745
  24        -0.00039444
  25        -0.00059816
  26         0.00002567
  27         0.00000000
  28        -0.00000000
  29         0.00169019
  30         0.00000000
  31         0.00000000
  32         0.00085429
  33         0.00000000
  34        -0.00000000
  35         0.00002622
  36        -0.00000000
  37         0.00000000
  38        -0.00008080
  39         0.00000000
  40        -0.00000374
  41         0.00000000
  42         0.00000000
  43        -0.00000102
  44         0.00000000
  45         0.00469743
  46         0.00039444
  47         0.00059815
  48         0.00002567
  49         0.00000000
  50        -0.00000000
  51         0.00169018
  52         0.00000000
  53        -0.00000000
  54         0.00085428
  55         0.00000000
  56         0.00000000
  57        -0.00002622
  58        -0.00000000
  59         0.00000000
  60         0.00008080
  61         0.00000000
  62         0.00000374
  63         0.00000000
  64         0.00000000
  65         0.00000102
  66         0.00000000
  67         0.70729951
  68         0.00018489
  69        -0.00135982
  70         0.00364445
  71         0.00000000
  72        -0.00000000
  73         0.00085847
  74         0.00000000
  75         0.00000000
  76         0.00042704
  77         0.00000000
  78        -0.00000000
  79        -0.00043920
  80         0.00000000
  81         0.00000000
  82         0.00077403
  83         0.00000000
  84         0.00037398
  85        -0.00000000
  86         0.00000000
  87        -0.00064856
  88         0.00000000
Sym=     2a  
Ene=    -4.7068
Spin= Alpha
Occup=    2.00000
   1         0.70721240
   2         0.00012091
   3        -0.00126875
   4        -0.00367379
   5         0.00000000
   6        -0.00000000
   7        -0.00094687
   8         0.00000000
   9         0.00000000
  10        -0.00024894
  11         0.00000000
  12         0.00000000
  13        -0.00043472
  14        -0.00000000
  15         0.00000000
  16         0.00076872
  17         0.00000000
  18         0.00038520
  19         0.00000000
  20         0.00000000
  21        -0.00066718
  22         0.00000000
  23         0.00296674
  24         0.00041917
  25         0.00249993
  26        -0.00009435
  27         0.00000000
  28        -0.00000000
  29        -0.00090290
  30         0.00000000
  31         0.00000000
  32        -0.00075526
  33         0.00000000
  34        -0.00000000
  35        -0.00001858
  36        -0.00000000
  37         0.00000000
  38         0.00011306
  39         0.00000000
  40        -0.00014126
  41         0.00000000
  42         0.00000000
  43         0.00026534
  44         0.00000000
  45         0.00296677
  46         0.00041917
  47         0.00249993
  48         0.00009435
  49         0.00000000
  50        -0.00000000
  51         0.00090291
  52         0.00000000
  53         0.00000000
  54         0.00075526
  55         0.00000000
  56         0.00000000
  57        -0.00001858
  58         0.00000000
  59         0.00000000
  60         0.00011306
  61         0.00000000
  62        -0.00014126
  63        -0.00000000
  64         0.00000000
  65         0.00026534
  66         0.00000000
  67         0.70721696
  68         0.00012091
  69        -0.00126876
  70         0.00367382
  71         0.00000000
  72        -0.00000000
  73         0.00094687
  74         0.00000000
  75         0.00000000
  76         0.00024894
  77         0.00000000
  78        -0.00000000
  79        -0.00043472
  80         0.00000000
  81         0.00000000
  82         0.00076873
  83         0.00000000
  84         0.00038520
  85        -0.00000000
  86         0.00000000
  87        -0.00066718
  88         0.00000000
Sym=     3a  
Ene=    -4.6973
Spin= Alpha
Occup=    2.00000
   1        -0.00345658
   2         0.00033821
   3         0.00298941
   4         0.00006846
   5         0.00000000
   6        -0.00000000
   7         0.00182749
   8         0.00000000
   9         0.00000000
  10         0.00019091
  11         0.00000000
  12         0.00000000
  13         0.00000670
  14         0.00000000
  15         0.00000000
  16        -0.00000117
  17         0.00000000
  18        -0.00033293
  19        -0.00000000
  20         0.00000000
  21         0.00058070
  22         0.00000000
  23         0.70738013
  24         0.00038856
  25        -0.00164364
  26         0.00256970
  27         0.00000000
  28        -0.00000000
  29         0.00168859
  30         0.00000000
  31         0.00000000
  32         0.00075835
  33         0.00000000
  34        -0.00000000
  35        -0.00076450
  36        -0.00000000
  37         0.00000000
  38         0.00146114
  39         0.00000000
  40         0.00072384
  41         0.00000000
  42         0.00000000
  43        -0.00124316
  44         0.00000000
  45         0.70738062
  46         0.00038856
  47        -0.00164364
  48        -0.00256970
  49         0.00000000
  50        -0.00000000
  51        -0.00168859
  52         0.00000000
  53        -0.00000000
  54        -0.00075834
  55         0.00000000
  56         0.00000000
  57        -0.00076450
  58        -0.00000000
  59         0.00000000
  60         0.00146114
  61         0.00000000
  62         0.00072384
  63         0.00000000
  64         0.00000000
  65        -0.00124316
  66         0.00000000
  67        -0.00345658
  68         0.00033821
  69         0.00298941
  70        -0.00006846
  71         0.00000000
  72        -0.00000000
  73        -0.00182749
  74         0.00000000
  75         0.00000000
  76        -0.00019091
  77         0.00000000
  78        -0.00000000
  79         0.00000670
  80         0.00000000
  81         0.00000000
  82        -0.00000117
  83         0.00000000
  84        -0.00033293
  85        -0.00000000
  86         0.00000000
  87         0.00058070
  88         0.00000000
Sym=     4a  
Ene=    -4.6971
Spin= Alpha
Occup=    2.00000
   1         0.00452234
   2        -0.00043099
   3        -0.00149486
   4        -0.00015953
   5         0.00000000
   6        -0.00000000
   7        -0.00128742
   8         0.00000000
   9         0.00000000
  10        -0.00030624
  11         0.00000000
  12         0.00000000
  13         0.00032905
  14        -0.00000000
  15         0.00000000
  16        -0.00046944
  17         0.00000000
  18         0.00033744
  19         0.00000000
  20         0.00000000
  21        -0.00056645
  22         0.00000000
  23        -0.70742245
  24         0.00045530
  25         0.00548466
  26        -0.00287247
  27         0.00000000
  28        -0.00000000
  29         0.00158930
  30         0.00000000
  31         0.00000000
  32         0.00070802
  33         0.00000000
  34        -0.00000000
  35         0.00199641
  36        -0.00000000
  37         0.00000000
  38        -0.00289091
  39         0.00000000
  40        -0.00094116
  41        -0.00000000
  42         0.00000000
  43         0.00175927
  44         0.00000000
  45         0.70742196
  46        -0.00045530
  47        -0.00548466
  48        -0.00287247
  49         0.00000000
  50        -0.00000000
  51         0.00158930
  52         0.00000000
  53         0.00000000
  54         0.00070802
  55         0.00000000
  56         0.00000000
  57        -0.00199641
  58         0.00000000
  59         0.00000000
  60         0.00289091
  61         0.00000000
  62         0.00094116
  63        -0.00000000
  64         0.00000000
  65        -0.00175927
  66         0.00000000
  67        -0.00452234
  68         0.00043099
  69         0.00149486
  70        -0.00015953
  71         0.00000000
  72        -0.00000000
  73        -0.00128742
  74         0.00000000
  75         0.00000000
  76        -0.00030624
  77         0.00000000
  78         0.00000000
  79        -0.00032905
  80         0.00000000
  81         0.00000000
  82         0.00046944
  83         0.00000000
  84        -0.00033744
  85        -0.00000000
  86         0.00000000
  87         0.00056645
  88         0.00000000
Sym=     5a  
Ene=    -2.7011
Spin= Alpha
Occup=    2.00000
   1        -0.00137517
   2         0.00101129
   3        -0.00316023
   4        -0.67542737
   5         0.00000000
   6        -0.00000000
   7        -0.01194291
   8         0.00000000
   9         0.00000000
  10         0.00275224
  11         0.00000000
  12        -0.00000000
  13        -0.00162333
  14        -0.00000000
  15         0.00000000
  16         0.00278594
  17         0.00000000
  18         0.00058619
  19         0.00000000
  20         0.00000000
  21        -0.00102035
  22         0.00000000
  23         0.00014918
  24        -0.00146674
  25        -0.00097087
  26         0.19732073
  27         0.00000000
  28        -0.00000000
  29         0.00375760
  30         0.00000000
  31         0.00000000
  32        -0.00332383
  33         0.00000000
  34         0.00000000
  35        -0.00017664
  36        -0.00000000
  37         0.00000000
  38         0.00007810
  39         0.00000000
  40         0.00036645
  41        -0.00000000
  42         0.00000000
  43        -0.00069345
  44         0.00000000
  45         0.00014918
  46        -0.00146674
  47        -0.00097087
  48        -0.19732071
  49         0.00000000
  50        -0.00000000
  51        -0.00375760
  52         0.00000000
  53         0.00000000
  54         0.00332383
  55         0.00000000
  56        -0.00000000
  57        -0.00017664
  58         0.00000000
  59         0.00000000
  60         0.00007810
  61         0.00000000
  62         0.00036645
  63        -0.00000000
  64         0.00000000
  65        -0.00069345
  66         0.00000000
  67        -0.00137517
  68         0.00101129
  69        -0.00316023
  70         0.67542716
  71         0.00000000
  72        -0.00000000
  73         0.01194290
  74         0.00000000
  75         0.00000000
  76        -0.00275224
  77         0.00000000
  78         0.00000000
  79        -0.00162333
  80         0.00000000
  81         0.00000000
  82         0.00278594
  83         0.00000000
  84         0.00058619
  85         0.00000000
  86         0.00000000
  87        -0.00102035
  88         0.00000000
Sym=     6a  
Ene=    -2.7009
Spin= Alpha
Occup=    2.00000
   1         0.00196747
   2        -0.00130382
   3        -0.00152541
   4         0.69466517
   5         0.00000000
   6         0.00000000
   7         0.00994044
   8         0.00000000
   9         0.00000000
  10        -0.00264586
  11         0.00000000
  12         0.00000000
  13         0.00156065
  14         0.00000000
  15         0.00000000
  16        -0.00273532
  17         0.00000000
  18        -0.00013759
  19        -0.00000000
  20         0.00000000
  21         0.00023067
  22         0.00000000
  23        -0.00102390
  24         0.00105511
  25         0.00614837
  26        -0.11416576
  27         0.00000000
  28         0.00000000
  29        -0.00002693
  30         0.00000000
  31        -0.00000000
  32        -0.00056240
  33         0.00000000
  34        -0.00000000
  35        -0.00057495
  36         0.00000000
  37         0.00000000
  38         0.00079098
  39         0.00000000
  40        -0.00237848
  41         0.00000000
  42         0.00000000
  43         0.00408543
  44         0.00000000
  45         0.00102390
  46        -0.00105511
  47        -0.00614837
  48        -0.11416582
  49         0.00000000
  50         0.00000000
  51        -0.00002693
  52         0.00000000
  53        -0.00000000
  54        -0.00056240
  55         0.00000000
  56         0.00000000
  57         0.00057495
  58        -0.00000000
  59         0.00000000
  60        -0.00079098
  61         0.00000000
  62         0.00237848
  63         0.00000000
  64         0.00000000
  65        -0.00408543
  66         0.00000000
  67        -0.00196747
  68         0.00130382
  69         0.00152541
  70         0.69466538
  71         0.00000000
  72        -0.00000000
  73         0.00994044
  74         0.00000000
  75         0.00000000
  76        -0.00264586
  77         0.00000000
  78        -0.00000000
  79        -0.00156065
  80        -0.00000000
  81         0.00000000
  82         0.00273532
  83         0.00000000
  84         0.00013759
  85        -0.00000000
  86         0.00000000
  87        -0.00023067
  88         0.00000000
Sym=     7a  
Ene=    -2.6971
Spin= Alpha
Occup=    2.00000
   1         0.00000000
   2         0.00000000
   3        -0.00000000
   4        -0.00000000
   5         0.00000000
   6        -0.70460494
   7        -0.00000000
   8         0.00000000
   9        -0.01262469
  10        -0.00000000
  11         0.00000000
  12         0.00300576
  13         0.00000000
  14         0.00302639
  15         0.00000000
  16        -0.00000000
  17         0.00000000
  18         0.00000000
  19        -0.00065335
  20         0.00000000
  21        -0.00000000
  22         0.00000000
  23        -0.00000000
  24         0.00000000
  25         0.00000000
  26         0.00000000
  27         0.00000000
  28        -0.00937252
  29        -0.00000000
  30         0.00000000
  31         0.00019209
  32         0.00000000
  33         0.00000000
  34        -0.00063828
  35        -0.00000000
  36        -0.00002826
  37         0.00000000
  38         0.00000000
  39         0.00000000
  40         0.00000000
  41        -0.00033579
  42         0.00000000
  43         0.00000000
  44         0.00000000
  45        -0.00000000
  46        -0.00000000
  47        -0.00000000
  48         0.00000000
  49         0.00000000
  50         0.00937228
  51         0.00000000
  52         0.00000000
  53        -0.00019208
  54         0.00000000
  55         0.00000000
  56         0.00063827
  57         0.00000000
  58        -0.00002826
  59         0.00000000
  60        -0.00000000
  61         0.00000000
  62        -0.00000000
  63        -0.00033578
  64         0.00000000
  65        -0.00000000
  66         0.00000000
  67         0.00000000
  68         0.00000000
  69         0.00000000
  70        -0.00000000
  71         0.00000000
  72         0.70458799
  73        -0.00000000
  74         0.00000000
  75         0.01262439
  76        -0.00000000
  77         0.00000000
  78        -0.00300568
  79        -0.00000000
  80         0.00302632
  81         0.00000000
  82         0.00000000
  83         0.00000000
  84        -0.00000000
  85        -0.00065334
  86         0.00000000
  87        -0.00000000
  88         0.00000000
Sym=     8a  
Ene=    -2.6971
Spin= Alpha
Occup=    2.00000
   1         0.00000000
   2         0.00000000
   3        -0.00000000
   4        -0.00000000
   5         0.00000000
   6         0.70458012
   7        -0.00000000
   8         0.00000000
   9         0.01267555
  10        -0.00000000
  11         0.00000000
  12        -0.00316098
  13         0.00000000
  14        -0.00302231
  15         0.00000000
  16        -0.00000000
  17         0.00000000
  18         0.00000000
  19         0.00064858
  20         0.00000000
  21        -0.00000000
  22         0.00000000
  23        -0.00000000
  24         0.00000000
  25         0.00000000
  26         0.00000000
  27         0.00000000
  28         0.00986750
  29        -0.00000000
  30         0.00000000
  31        -0.00038621
  32        -0.00000000
  33         0.00000000
  34         0.00072023
  35        -0.00000000
  36         0.00000681
  37         0.00000000
  38         0.00000000
  39         0.00000000
  40         0.00000000
  41         0.00033559
  42         0.00000000
  43         0.00000000
  44         0.00000000
  45        -0.00000000
  46        -0.00000000
  47        -0.00000000
  48         0.00000000
  49         0.00000000
  50         0.00986772
  51         0.00000000
  52         0.00000000
  53        -0.00038622
  54         0.00000000
  55         0.00000000
  56         0.00072024
  57         0.00000000
  58        -0.00000681
  59         0.00000000
  60        -0.00000000
  61         0.00000000
  62        -0.00000000
  63        -0.00033560
  64         0.00000000
  65        -0.00000000
  66         0.00000000
  67         0.00000000
  68         0.00000000
  69         0.00000000
  70        -0.00000000
  71         0.00000000
  72         0.70459707
  73        -0.00000000
  74         0.00000000
  75         0.01267585
  76        -0.00000000
  77         0.00000000
  78        -0.00316105
  79        -0.00000000
  80         0.00302238
  81         0.00000000
  82         0.00000000
  83         0.00000000
  84        -0.00000000
  85        -0.00064859
  86         0.00000000
  87        -0.00000000
  88         0.00000000
Sym=     9a  
Ene=    -2.6971
Spin= Alpha
Occup=    2.00000
   1         0.00000000
   2         0.00000000
   3         0.00000000
   4         0.00000000
   5        -0.70460448
   6         0.00000000
   7         0.00000000
   8        -0.01263481
   9         0.00000000
  10         0.00000000
  11         0.00300867
  12         0.00000000
  13         0.00000000
  14         0.00000000
  15         0.00000000
  16         0.00000000
  17         0.00302799
  18         0.00000000
  19         0.00000000
  20         0.00000000
  21         0.00000000
  22        -0.00065537
  23         0.00000000
  24         0.00000000
  25         0.00000000
  26         0.00000000
  27        -0.00930725
  28         0.00000000
  29         0.00000000
  30         0.00019327
  31         0.00000000
  32         0.00000000
  33        -0.00063887
  34         0.00000000
  35         0.00000000
  36         0.00000000
  37         0.00000000
  38         0.00000000
  39        -0.00002769
  40         0.00000000
  41         0.00000000
  42         0.00000000
  43         0.00000000
  44        -0.00033747
  45         0.00000000
  46         0.00000000
  47         0.00000000
  48         0.00000000
  49         0.00930700
  50         0.00000000
  51         0.00000000
  52        -0.00019326
  53         0.00000000
  54         0.00000000
  55         0.00063885
  56         0.00000000
  57         0.00000000
  58         0.00000000
  59         0.00000000
  60         0.00000000
  61        -0.00002769
  62         0.00000000
  63         0.00000000
  64         0.00000000
  65         0.00000000
  66        -0.00033746
  67         0.00000000
  68         0.00000000
  69         0.00000000
  70         0.00000000
  71         0.70458642
  72         0.00000000
  73         0.00000000
  74         0.01263449
  75         0.00000000
  76         0.00000000
  77        -0.00300859
  78         0.00000000
  79         0.00000000
  80         0.00000000
  81         0.00000000
  82         0.00000000
  83         0.00302791
  84         0.00000000
  85         0.00000000
  86         0.00000000
  87         0.00000000
  88        -0.00065535
Sym=    10a  
Ene=    -2.6971
Spin= Alpha
Occup=    2.00000
   1         0.00000000
   2         0.00000000
   3         0.00000000
   4         0.00000000
   5         0.70457749
   6         0.00000000
   7         0.00000000
   8         0.01268984
   9         0.00000000
  10         0.00000000
  11        -0.00316369
  12         0.00000000
  13         0.00000000
  14         0.00000000
  15         0.00000000
  16         0.00000000
  17        -0.00302592
  18         0.00000000
  19         0.00000000
  20         0.00000000
  21         0.00000000
  22         0.00065117
  23         0.00000000
  24         0.00000000
  25         0.00000000
  26         0.00000000
  27         0.00977962
  28         0.00000000
  29         0.00000000
  30        -0.00037235
  31         0.00000000
  32         0.00000000
  33         0.00072115
  34         0.00000000
  35         0.00000000
  36         0.00000000
  37         0.00000000
  38         0.00000000
  39         0.00000497
  40         0.00000000
  41         0.00000000
  42         0.00000000
  43         0.00000000
  44         0.00033683
  45         0.00000000
  46         0.00000000
  47         0.00000000
  48         0.00000000
  49         0.00977986
  50         0.00000000
  51         0.00000000
  52        -0.00037236
  53         0.00000000
  54         0.00000000
  55         0.00072117
  56         0.00000000
  57         0.00000000
  58         0.00000000
  59         0.00000000
  60         0.00000000
  61        -0.00000497
  62         0.00000000
  63         0.00000000
  64         0.00000000
  65         0.00000000
  66        -0.00033684
  67         0.00000000
  68         0.00000000
  69         0.00000000
  70         0.00000000
  71         0.70459556
  72         0.00000000
  73         0.00000000
  74         0.01269016
  75         0.00000000
  76         0.00000000
  77        -0.00316377
  78         0.00000000
  79         0.00000000
  80         0.00000000
  81         0.00000000
  82         0.00000000
  83         0.00302600
  84         0.00000000
  85         0.00000000
  86         0.00000000
  87         0.00000000
  88        -0.00065119
Sym=    11a  
Ene=    -2.6930
Spin= Alpha
Occup=    2.00000
   1        -0.00137057
   2         0.00161897
   3         0.00380672
   4        -0.20021513
   5         0.00000000
   6         0.00000000
   7         0.00027244
   8         0.00000000
   9        -0.00000000
  10        -0.00027659
  11         0.00000000
  12        -0.00000000
  13        -0.00080249
  14        -0.00000000
  15         0.00000000
  16         0.00139530
  17         0.00000000
  18        -0.00111680
  19         0.00000000
  20         0.00000000
  21         0.00193632
  22         0.00000000
  23         0.00301153
  24        -0.00150429
  25        -0.00297841
  26        -0.67484070
  27         0.00000000
  28         0.00000000
  29        -0.00858460
  30         0.00000000
  31        -0.00000000
  32         0.00306747
  33         0.00000000
  34         0.00000000
  35         0.00142845
  36         0.00000000
  37         0.00000000
  38        -0.00243874
  39         0.00000000
  40         0.00132433
  41        -0.00000000
  42         0.00000000
  43        -0.00228063
  44         0.00000000
  45         0.00301153
  46        -0.00150429
  47        -0.00297841
  48         0.67484069
  49         0.00000000
  50         0.00000000
  51         0.00858460
  52         0.00000000
  53        -0.00000000
  54        -0.00306747
  55         0.00000000
  56        -0.00000000
  57         0.00142845
  58         0.00000000
  59         0.00000000
  60        -0.00243874
  61         0.00000000
  62         0.00132433
  63        -0.00000000
  64         0.00000000
  65        -0.00228063
  66         0.00000000
  67        -0.00137057
  68         0.00161897
  69         0.00380672
  70         0.20021513
  71         0.00000000
  72         0.00000000
  73        -0.00027244
  74         0.00000000
  75        -0.00000000
  76         0.00027659
  77         0.00000000
  78         0.00000000
  79        -0.00080249
  80        -0.00000000
  81         0.00000000
  82         0.00139530
  83         0.00000000
  84        -0.00111680
  85         0.00000000
  86         0.00000000
  87         0.00193632
  88         0.00000000
Sym=    12a  
Ene=    -2.6858
Spin= Alpha
Occup=    2.00000
   1         0.00000000
   2         0.00000000
   3        -0.00000000
   4        -0.00000000
   5         0.00000000
   6        -0.01026387
   7        -0.00000000
   8         0.00000000
   9        -0.00061996
  10        -0.00000000
  11         0.00000000
  12         0.00092130
  13        -0.00000000
  14         0.00001394
  15         0.00000000
  16         0.00000000
  17         0.00000000
  18         0.00000000
  19        -0.00013078
  20         0.00000000
  21        -0.00000000
  22         0.00000000
  23        -0.00000000
  24        -0.00000000
  25        -0.00000000
  26         0.00000000
  27         0.00000000
  28         0.70438103
  29        -0.00000000
  30         0.00000000
  31         0.01255377
  32        -0.00000000
  33         0.00000000
  34        -0.00284397
  35         0.00000000
  36         0.00193342
  37         0.00000000
  38        -0.00000000
  39         0.00000000
  40         0.00000000
  41        -0.00044066
  42         0.00000000
  43        -0.00000000
  44         0.00000000
  45        -0.00000000
  46         0.00000000
  47         0.00000000
  48        -0.00000000
  49         0.00000000
  50         0.70438158
  51         0.00000000
  52         0.00000000
  53         0.01255378
  54         0.00000000
  55         0.00000000
  56        -0.00284397
  57        -0.00000000
  58        -0.00193342
  59         0.00000000
  60         0.00000000
  61         0.00000000
  62        -0.00000000
  63         0.00044066
  64         0.00000000
  65        -0.00000000
  66         0.00000000
  67        -0.00000000
  68        -0.00000000
  69        -0.00000000
  70         0.00000000
  71         0.00000000
  72        -0.01026388
  73         0.00000000
  74         0.00000000
  75        -0.00061996
  76         0.00000000
  77         0.00000000
  78         0.00092130
  79         0.00000000
  80        -0.00001394
  81         0.00000000
  82        -0.00000000
  83         0.00000000
  84        -0.00000000
  85         0.00013078
  86         0.00000000
  87        -0.00000000
  88         0.00000000
Sym=    13a  
Ene=    -2.6857
Spin= Alpha
Occup=    2.00000
   1         0.00000000
   2         0.00000000
   3         0.00000000
   4         0.00000000
   5        -0.01018536
   6         0.00000000
   7         0.00000000
   8        -0.00060791
   9         0.00000000
  10         0.00000000
  11         0.00092869
  12         0.00000000
  13         0.00000000
  14         0.00000000
  15         0.00000000
  16         0.00000000
  17         0.00000544
  18         0.00000000
  19         0.00000000
  20         0.00000000
  21         0.00000000
  22        -0.00013118
  23         0.00000000
  24         0.00000000
  25         0.00000000
  26         0.00000000
  27         0.70435411
  28         0.00000000