[Molden Format]
[N_Atoms]
                    4
[Atoms] (AU)
AU1         1     79         -16.32723372      0.00000000      0.00000000
AU2         2     79         -10.88482248      0.00000000      0.00000000
AU3         3     79          -5.44241124      0.00000000      0.00000000
AU4         4     79           0.00000000      0.00000000      0.00000000
[5D]
[Charge] (Mulliken)
   7.6918390311043083E-002
  -7.6918390312336271E-002
  -7.6918390311842444E-002
   7.6918390310400042E-002
[GTO] (AU)
   1
   s   3
  0.280900000E+01 -0.120215564E+01
  0.159500000E+01  0.167415786E+01
  0.532700000E+00  0.352659312E+00
   s   4
  0.280900000E+01  0.116084804E+01
  0.159500000E+01 -0.186428451E+01
  0.532700000E+00 -0.103562295E+01
  0.282600000E+00  0.130643983E+01
   s   1
  0.598000000E-01  0.100000000E+01
   p   3
  0.368400000E+01 -0.280268082E+00
  0.166600000E+01  0.781839749E+00
  0.598900000E+00  0.480477568E+00
   p   2
  0.683800000E+00 -0.952078005E-01
  0.977000000E-01  0.102991471E+01
   p   1
  0.279000000E-01  0.100000000E+01
   d   2
  0.128700000E+01  0.584427277E+00
  0.433500000E+00  0.529816079E+00
   d   1
  0.139600000E+00  0.100000000E+01
 
   2
   s   3
  0.280900000E+01 -0.120215564E+01
  0.159500000E+01  0.167415786E+01
  0.532700000E+00  0.352659312E+00
   s   4
  0.280900000E+01  0.116084804E+01
  0.159500000E+01 -0.186428451E+01
  0.532700000E+00 -0.103562295E+01
  0.282600000E+00  0.130643983E+01
   s   1
  0.598000000E-01  0.100000000E+01
   p   3
  0.368400000E+01 -0.280268082E+00
  0.166600000E+01  0.781839749E+00
  0.598900000E+00  0.480477568E+00
   p   2
  0.683800000E+00 -0.952078005E-01
  0.977000000E-01  0.102991471E+01
   p   1
  0.279000000E-01  0.100000000E+01
   d   2
  0.128700000E+01  0.584427277E+00
  0.433500000E+00  0.529816079E+00
   d   1
  0.139600000E+00  0.100000000E+01
 
   3
   s   3
  0.280900000E+01 -0.120215564E+01
  0.159500000E+01  0.167415786E+01
  0.532700000E+00  0.352659312E+00
   s   4
  0.280900000E+01  0.116084804E+01
  0.159500000E+01 -0.186428451E+01
  0.532700000E+00 -0.103562295E+01
  0.282600000E+00  0.130643983E+01
   s   1
  0.598000000E-01  0.100000000E+01
   p   3
  0.368400000E+01 -0.280268082E+00
  0.166600000E+01  0.781839749E+00
  0.598900000E+00  0.480477568E+00
   p   2
  0.683800000E+00 -0.952078005E-01
  0.977000000E-01  0.102991471E+01
   p   1
  0.279000000E-01  0.100000000E+01
   d   2
  0.128700000E+01  0.584427277E+00
  0.433500000E+00  0.529816079E+00
   d   1
  0.139600000E+00  0.100000000E+01
 
   4
   s   3
  0.280900000E+01 -0.120215564E+01
  0.159500000E+01  0.167415786E+01
  0.532700000E+00  0.352659312E+00
   s   4
  0.280900000E+01  0.116084804E+01
  0.159500000E+01 -0.186428451E+01
  0.532700000E+00 -0.103562295E+01
  0.282600000E+00  0.130643983E+01
   s   1
  0.598000000E-01  0.100000000E+01
   p   3
  0.368400000E+01 -0.280268082E+00
  0.166600000E+01  0.781839749E+00
  0.598900000E+00  0.480477568E+00
   p   2
  0.683800000E+00 -0.952078005E-01
  0.977000000E-01  0.102991471E+01
   p   1
  0.279000000E-01  0.100000000E+01
   d   2
  0.128700000E+01  0.584427277E+00
  0.433500000E+00  0.529816079E+00
   d   1
  0.139600000E+00  0.100000000E+01
 
[MO]
Sym=     1a  
Ene=    -4.7067
Spin= Alpha
Occup=    2.00000
   1        -0.70730726
   2         0.00015939
   3         0.00210065
   4         0.00498976
   5         0.00000000
   6         0.00000000
   7         0.00101032
   8         0.00000000
   9         0.00000000
  10         0.00044614
  11         0.00000000
  12         0.00000000
  13         0.00052879
  14         0.00000000
  15         0.00000000
  16        -0.00091589
  17         0.00000000
  18        -0.00042217
  19         0.00000000
  20         0.00000000
  21         0.00073122
  22         0.00000000
  23        -0.00596842
  24        -0.00017587
  25        -0.00023369
  26         0.00008682
  27         0.00000000
  28         0.00000000
  29         0.00170805
  30         0.00000000
  31         0.00000000
  32         0.00088209
  33         0.00000000
  34         0.00000000
  35         0.00006474
  36         0.00000000
  37         0.00000000
  38        -0.00011213
  39         0.00000000
  40        -0.00000119
  41         0.00000000
  42         0.00000000
  43         0.00000206
  44         0.00000000
  45         0.00596842
  46         0.00017587
  47         0.00023369
  48         0.00008682
  49         0.00000000
  50         0.00000000
  51         0.00170805
  52         0.00000000
  53         0.00000000
  54         0.00088209
  55         0.00000000
  56         0.00000000
  57        -0.00006474
  58         0.00000000
  59         0.00000000
  60         0.00011213
  61         0.00000000
  62         0.00000119
  63         0.00000000
  64         0.00000000
  65        -0.00000206
  66         0.00000000
  67         0.70730722
  68        -0.00015939
  69        -0.00210065
  70         0.00498976
  71         0.00000000
  72         0.00000000
  73         0.00101032
  74         0.00000000
  75         0.00000000
  76         0.00044614
  77         0.00000000
  78         0.00000000
  79        -0.00052879
  80         0.00000000
  81         0.00000000
  82         0.00091589
  83         0.00000000
  84         0.00042217
  85         0.00000000
  86         0.00000000
  87        -0.00073122
  88         0.00000000
Sym=     2a  
Ene=    -4.7067
Spin= Alpha
Occup=    2.00000
   1         0.70721491
   2        -0.00023008
   3        -0.00198452
   4        -0.00499025
   5         0.00000000
   6         0.00000000
   7        -0.00112673
   8         0.00000000
   9         0.00000000
  10        -0.00026213
  11         0.00000000
  12         0.00000000
  13        -0.00052880
  14         0.00000000
  15         0.00000000
  16         0.00091592
  17         0.00000000
  18         0.00043528
  19         0.00000000
  20         0.00000000
  21        -0.00075392
  22         0.00000000
  23         0.00558648
  24        -0.00002546
  25         0.00189646
  26        -0.00007750
  27         0.00000000
  28         0.00000000
  29        -0.00098473
  30         0.00000000
  31         0.00000000
  32        -0.00077481
  33         0.00000000
  34         0.00000000
  35        -0.00005689
  36         0.00000000
  37         0.00000000
  38         0.00009854
  39         0.00000000
  40        -0.00014094
  41         0.00000000
  42         0.00000000
  43         0.00024412
  44         0.00000000
  45         0.00558648
  46        -0.00002546
  47         0.00189646
  48         0.00007750
  49         0.00000000
  50         0.00000000
  51         0.00098473
  52         0.00000000
  53         0.00000000
  54         0.00077481
  55         0.00000000
  56         0.00000000
  57        -0.00005689
  58         0.00000000
  59         0.00000000
  60         0.00009854
  61         0.00000000
  62        -0.00014094
  63         0.00000000
  64         0.00000000
  65         0.00024412
  66         0.00000000
  67         0.70721495
  68        -0.00023008
  69        -0.00198452
  70         0.00499025
  71         0.00000000
  72         0.00000000
  73         0.00112673
  74         0.00000000
  75         0.00000000
  76         0.00026213
  77         0.00000000
  78         0.00000000
  79        -0.00052880
  80         0.00000000
  81         0.00000000
  82         0.00091592
  83         0.00000000
  84         0.00043528
  85         0.00000000
  86         0.00000000
  87        -0.00075392
  88         0.00000000
Sym=     3a  
Ene=    -4.6988
Spin= Alpha
Occup=    2.00000
   1        -0.00603279
   2         0.00000004
   3         0.00247509
   4         0.00019069
   5         0.00000000
   6         0.00000000
   7         0.00177548
   8         0.00000000
   9         0.00000000
  10         0.00020383
  11         0.00000000
  12         0.00000000
  13        -0.00002915
  14         0.00000000
  15         0.00000000
  16         0.00005049
  17         0.00000000
  18        -0.00033845
  19         0.00000000
  20         0.00000000
  21         0.00058621
  22         0.00000000
  23         0.70738314
  24        -0.00019055
  25        -0.00264226
  26         0.00477430
  27         0.00000000
  28         0.00000000
  29         0.00173074
  30         0.00000000
  31         0.00000000
  32         0.00077943
  33         0.00000000
  34         0.00000000
  35        -0.00083795
  36         0.00000000
  37         0.00000000
  38         0.00145138
  39         0.00000000
  40         0.00075426
  41         0.00000000
  42         0.00000000
  43        -0.00130642
  44         0.00000000
  45         0.70738314
  46        -0.00019055
  47        -0.00264226
  48        -0.00477430
  49         0.00000000
  50         0.00000000
  51        -0.00173074
  52         0.00000000
  53         0.00000000
  54        -0.00077943
  55         0.00000000
  56         0.00000000
  57        -0.00083795
  58         0.00000000
  59         0.00000000
  60         0.00145138
  61         0.00000000
  62         0.00075426
  63         0.00000000
  64         0.00000000
  65        -0.00130642
  66         0.00000000
  67        -0.00603279
  68         0.00000004
  69         0.00247509
  70        -0.00019069
  71         0.00000000
  72         0.00000000
  73        -0.00177548
  74         0.00000000
  75         0.00000000
  76        -0.00020383
  77         0.00000000
  78         0.00000000
  79        -0.00002915
  80         0.00000000
  81         0.00000000
  82         0.00005049
  83         0.00000000
  84        -0.00033845
  85         0.00000000
  86         0.00000000
  87         0.00058621
  88         0.00000000
Sym=     4a  
Ene=    -4.6987
Spin= Alpha
Occup=    2.00000
   1         0.00576239
   2        -0.00020477
   3        -0.00120424
   4        -0.00020265
   5         0.00000000
   6         0.00000000
   7        -0.00127168
   8         0.00000000
   9         0.00000000
  10        -0.00030460
  11         0.00000000
  12         0.00000000
  13         0.00003378
  14         0.00000000
  15         0.00000000
  16        -0.00005850
  17         0.00000000
  18         0.00029349
  19         0.00000000
  20         0.00000000
  21        -0.00050833
  22         0.00000000
  23        -0.70742208
  24         0.00045656
  25         0.00555781
  26        -0.00447952
  27         0.00000000
  28         0.00000000
  29         0.00141800
  30         0.00000000
  31         0.00000000
  32         0.00072428
  33         0.00000000
  34         0.00000000
  35         0.00074518
  36         0.00000000
  37         0.00000000
  38        -0.00129069
  39         0.00000000
  40        -0.00122620
  41         0.00000000
  42         0.00000000
  43         0.00212384
  44         0.00000000
  45         0.70742208
  46        -0.00045656
  47        -0.00555781
  48        -0.00447952
  49         0.00000000
  50         0.00000000
  51         0.00141800
  52         0.00000000
  53         0.00000000
  54         0.00072428
  55         0.00000000
  56         0.00000000
  57        -0.00074518
  58         0.00000000
  59         0.00000000
  60         0.00129069
  61         0.00000000
  62         0.00122620
  63         0.00000000
  64         0.00000000
  65        -0.00212384
  66         0.00000000
  67        -0.00576239
  68         0.00020477
  69         0.00120424
  70        -0.00020265
  71         0.00000000
  72         0.00000000
  73        -0.00127168
  74         0.00000000
  75         0.00000000
  76        -0.00030460
  77         0.00000000
  78         0.00000000
  79        -0.00003378
  80         0.00000000
  81         0.00000000
  82         0.00005850
  83         0.00000000
  84        -0.00029349
  85         0.00000000
  86         0.00000000
  87         0.00050833
  88         0.00000000
Sym=     5a  
Ene=    -2.7012
Spin= Alpha
Occup=    2.00000
   1        -0.00218924
   2         0.00231693
   3        -0.00161552
   4        -0.65898025
   5         0.00000000
   6         0.00000000
   7        -0.01115516
   8         0.00000000
   9         0.00000000
  10         0.00265172
  11         0.00000000
  12         0.00000000
  13        -0.00209844
  14         0.00000000
  15         0.00000000
  16         0.00363460
  17         0.00000000
  18         0.00068166
  19         0.00000000
  20         0.00000000
  21        -0.00118068
  22         0.00000000
  23        -0.00058928
  24         0.00026702
  25         0.00094599
  26         0.24666978
  27         0.00000000
  28         0.00000000
  29         0.00470870
  30         0.00000000
  31         0.00000000
  32        -0.00337735
  33         0.00000000
  34         0.00000000
  35        -0.00056665
  36         0.00000000
  37         0.00000000
  38         0.00098147
  39         0.00000000
  40         0.00033889
  41         0.00000000
  42         0.00000000
  43        -0.00058697
  44         0.00000000
  45        -0.00058928
  46         0.00026702
  47         0.00094599
  48        -0.24666978
  49         0.00000000
  50         0.00000000
  51        -0.00470870
  52         0.00000000
  53         0.00000000
  54         0.00337735
  55         0.00000000
  56         0.00000000
  57        -0.00056665
  58         0.00000000
  59         0.00000000
  60         0.00098147
  61         0.00000000
  62         0.00033889
  63         0.00000000
  64         0.00000000
  65        -0.00058697
  66         0.00000000
  67        -0.00218924
  68         0.00231693
  69        -0.00161552
  70         0.65898025
  71         0.00000000
  72         0.00000000
  73         0.01115516
  74         0.00000000
  75         0.00000000
  76        -0.00265172
  77         0.00000000
  78         0.00000000
  79        -0.00209844
  80         0.00000000
  81         0.00000000
  82         0.00363460
  83         0.00000000
  84         0.00068166
  85         0.00000000
  86         0.00000000
  87        -0.00118068
  88         0.00000000
Sym=     6a  
Ene=    -2.7008
Spin= Alpha
Occup=    2.00000
   1         0.00289701
   2        -0.00234818
   3        -0.00301882
   4         0.68710489
   5         0.00000000
   6         0.00000000
   7         0.00912928
   8         0.00000000
   9         0.00000000
  10        -0.00259507
  11         0.00000000
  12         0.00000000
  13         0.00225480
  14         0.00000000
  15         0.00000000
  16        -0.00390542
  17         0.00000000
  18        -0.00014889
  19         0.00000000
  20         0.00000000
  21         0.00025788
  22         0.00000000
  23        -0.00058975
  24         0.00056222
  25         0.00555765
  26        -0.15336093
  27         0.00000000
  28         0.00000000
  29        -0.00094827
  30         0.00000000
  31         0.00000000
  32        -0.00085994
  33         0.00000000
  34         0.00000000
  35         0.00018331
  36         0.00000000
  37         0.00000000
  38        -0.00031750
  39         0.00000000
  40        -0.00237857
  41         0.00000000
  42         0.00000000
  43         0.00411980
  44         0.00000000
  45         0.00058975
  46        -0.00056222
  47        -0.00555765
  48        -0.15336093
  49         0.00000000
  50         0.00000000
  51        -0.00094827
  52         0.00000000
  53         0.00000000
  54        -0.00085994
  55         0.00000000
  56         0.00000000
  57        -0.00018331
  58         0.00000000
  59         0.00000000
  60         0.00031750
  61         0.00000000
  62         0.00237857
  63         0.00000000
  64         0.00000000
  65        -0.00411980
  66         0.00000000
  67        -0.00289701
  68         0.00234818
  69         0.00301882
  70         0.68710489
  71         0.00000000
  72         0.00000000
  73         0.00912928
  74         0.00000000
  75         0.00000000
  76        -0.00259507
  77         0.00000000
  78         0.00000000
  79        -0.00225480
  80         0.00000000
  81         0.00000000
  82         0.00390542
  83         0.00000000
  84         0.00014889
  85         0.00000000
  86         0.00000000
  87        -0.00025788
  88         0.00000000
Sym=     7a  
Ene=    -2.6969
Spin= Alpha
Occup=    2.00000
   1         0.00000000
   2         0.00000000
   3         0.00000000
   4         0.00000000
   5        -0.70454643
   6         0.00000000
   7         0.00000000
   8        -0.01259824
   9         0.00000000
  10         0.00000000
  11         0.00295274
  12         0.00000000
  13         0.00000000
  14         0.00000000
  15         0.00000000
  16         0.00000000
  17         0.00412652
  18         0.00000000
  19         0.00000000
  20         0.00000000
  21         0.00000000
  22        -0.00078283
  23         0.00000000
  24         0.00000000
  25         0.00000000
  26         0.00000000
  27        -0.01236290
  28         0.00000000
  29         0.00000000
  30         0.00011487
  31         0.00000000
  32         0.00000000
  33        -0.00056042
  34         0.00000000
  35         0.00000000
  36         0.00000000
  37         0.00000000
  38         0.00000000
  39        -0.00005878
  40         0.00000000
  41         0.00000000
  42         0.00000000
  43         0.00000000
  44        -0.00033749
  45         0.00000000
  46         0.00000000
  47         0.00000000
  48         0.00000000
  49         0.01236290
  50         0.00000000
  51         0.00000000
  52        -0.00011487
  53         0.00000000
  54         0.00000000
  55         0.00056042
  56         0.00000000
  57         0.00000000
  58         0.00000000
  59         0.00000000
  60         0.00000000
  61        -0.00005878
  62         0.00000000
  63         0.00000000
  64         0.00000000
  65         0.00000000
  66        -0.00033749
  67         0.00000000
  68         0.00000000
  69         0.00000000
  70         0.00000000
  71         0.70454641
  72         0.00000000
  73         0.00000000
  74         0.01259824
  75         0.00000000
  76         0.00000000
  77        -0.00295274
  78         0.00000000
  79         0.00000000
  80         0.00000000
  81         0.00000000
  82         0.00000000
  83         0.00412652
  84         0.00000000
  85         0.00000000
  86         0.00000000
  87         0.00000000
  88        -0.00078283
Sym=     8a  
Ene=    -2.6969
Spin= Alpha
Occup=    2.00000
   1         0.00000000
   2         0.00000000
   3         0.00000000
   4         0.00000000
   5         0.00000000
   6        -0.70454642
   7         0.00000000
   8         0.00000000
   9        -0.01259824
  10         0.00000000
  11         0.00000000
  12         0.00295274
  13         0.00000000
  14         0.00412652
  15         0.00000000
  16         0.00000000
  17         0.00000000
  18         0.00000000
  19        -0.00078283
  20         0.00000000
  21         0.00000000
  22         0.00000000
  23         0.00000000
  24         0.00000000
  25         0.00000000
  26         0.00000000
  27         0.00000000
  28        -0.01236290
  29         0.00000000
  30         0.00000000
  31         0.00011487
  32         0.00000000
  33         0.00000000
  34        -0.00056042
  35         0.00000000
  36        -0.00005878
  37         0.00000000
  38         0.00000000
  39         0.00000000
  40         0.00000000
  41        -0.00033749
  42         0.00000000
  43         0.00000000
  44         0.00000000
  45         0.00000000
  46         0.00000000
  47         0.00000000
  48         0.00000000
  49         0.00000000
  50         0.01236290
  51         0.00000000
  52         0.00000000
  53        -0.00011487
  54         0.00000000
  55         0.00000000
  56         0.00056042
  57         0.00000000
  58        -0.00005878
  59         0.00000000
  60         0.00000000
  61         0.00000000
  62         0.00000000
  63        -0.00033749
  64         0.00000000
  65         0.00000000
  66         0.00000000
  67         0.00000000
  68         0.00000000
  69         0.00000000
  70         0.00000000
  71         0.00000000
  72         0.70454642
  73         0.00000000
  74         0.00000000
  75         0.01259824
  76         0.00000000
  77         0.00000000
  78        -0.00295274
  79         0.00000000
  80         0.00412652
  81         0.00000000
  82         0.00000000
  83         0.00000000
  84         0.00000000
  85        -0.00078283
  86         0.00000000
  87         0.00000000
  88         0.00000000
Sym=     9a  
Ene=    -2.6969
Spin= Alpha
Occup=    2.00000
   1         0.00000000
   2         0.00000000
   3         0.00000000
   4         0.00000000
   5         0.70453208
   6         0.00000000
   7         0.00000000
   8         0.01265291
   9         0.00000000
  10         0.00000000
  11        -0.00312600
  12         0.00000000
  13         0.00000000
  14         0.00000000
  15         0.00000000
  16         0.00000000
  17        -0.00412378
  18         0.00000000
  19         0.00000000
  20         0.00000000
  21         0.00000000
  22         0.00077533
  23         0.00000000
  24         0.00000000
  25         0.00000000
  26         0.00000000
  27         0.01301691
  28         0.00000000
  29         0.00000000
  30        -0.00030063
  31         0.00000000
  32         0.00000000
  33         0.00069490
  34         0.00000000
  35         0.00000000
  36         0.00000000
  37         0.00000000
  38         0.00000000
  39         0.00003773
  40         0.00000000
  41         0.00000000
  42         0.00000000
  43         0.00000000
  44         0.00033442
  45         0.00000000
  46         0.00000000
  47         0.00000000
  48         0.00000000
  49         0.01301691
  50         0.00000000
  51         0.00000000
  52        -0.00030063
  53         0.00000000
  54         0.00000000
  55         0.00069490
  56         0.00000000
  57         0.00000000
  58         0.00000000
  59         0.00000000
  60         0.00000000
  61        -0.00003773
  62         0.00000000
  63         0.00000000
  64         0.00000000
  65         0.00000000
  66        -0.00033442
  67         0.00000000
  68         0.00000000
  69         0.00000000
  70         0.00000000
  71         0.70453209
  72         0.00000000
  73         0.00000000
  74         0.01265291
  75         0.00000000
  76         0.00000000
  77        -0.00312600
  78         0.00000000
  79         0.00000000
  80         0.00000000
  81         0.00000000
  82         0.00000000
  83         0.00412378
  84         0.00000000
  85         0.00000000
  86         0.00000000
  87         0.00000000
  88        -0.00077533
Sym=    10a  
Ene=    -2.6969
Spin= Alpha
Occup=    2.00000
   1         0.00000000
   2         0.00000000
   3         0.00000000
   4         0.00000000
   5         0.00000000
   6         0.70453209
   7         0.00000000
   8         0.00000000
   9         0.01265291
  10         0.00000000
  11         0.00000000
  12        -0.00312600
  13         0.00000000
  14        -0.00412378
  15         0.00000000
  16         0.00000000
  17         0.00000000
  18         0.00000000
  19         0.00077533
  20         0.00000000
  21         0.00000000
  22         0.00000000
  23         0.00000000
  24         0.00000000
  25         0.00000000
  26         0.00000000
  27         0.00000000
  28         0.01301691
  29         0.00000000
  30         0.00000000
  31        -0.00030063
  32         0.00000000
  33         0.00000000
  34         0.00069490
  35         0.00000000
  36         0.00003773
  37         0.00000000
  38         0.00000000
  39         0.00000000
  40         0.00000000
  41         0.00033442
  42         0.00000000
  43         0.00000000
  44         0.00000000
  45         0.00000000
  46         0.00000000
  47         0.00000000
  48         0.00000000
  49         0.00000000
  50         0.01301691
  51         0.00000000
  52         0.00000000
  53        -0.00030063
  54         0.00000000
  55         0.00000000
  56         0.00069490
  57         0.00000000
  58        -0.00003773
  59         0.00000000
  60         0.00000000
  61         0.00000000
  62         0.00000000
  63        -0.00033442
  64         0.00000000
  65         0.00000000
  66         0.00000000
  67         0.00000000
  68         0.00000000
  69         0.00000000
  70         0.00000000
  71         0.00000000
  72         0.70453208
  73         0.00000000
  74         0.00000000
  75         0.01265291
  76         0.00000000
  77         0.00000000
  78        -0.00312600
  79         0.00000000
  80         0.00412378
  81         0.00000000
  82         0.00000000
  83         0.00000000
  84         0.00000000
  85        -0.00077533
  86         0.00000000
  87         0.00000000
  88         0.00000000
Sym=    11a  
Ene=    -2.6944
Spin= Alpha
Occup=    2.00000
   1        -0.00191622
   2         0.00182000
   3         0.00420514
   4        -0.24963904
   5         0.00000000
   6         0.00000000
   7        -0.00005117
   8         0.00000000
   9         0.00000000
  10        -0.00001092
  11         0.00000000
  12         0.00000000
  13        -0.00116461
  14         0.00000000
  15         0.00000000
  16         0.00201717
  17         0.00000000
  18        -0.00115662
  19         0.00000000
  20         0.00000000
  21         0.00200332
  22         0.00000000
  23         0.00439913
  24        -0.00278686
  25        -0.00418236
  26        -0.65835334
  27         0.00000000
  28         0.00000000
  29        -0.00788369
  30         0.00000000
  31         0.00000000
  32         0.00320683
  33         0.00000000
  34         0.00000000
  35         0.00239788
  36         0.00000000
  37         0.00000000
  38        -0.00415324
  39         0.00000000
  40         0.00130998
  41         0.00000000
  42         0.00000000
  43        -0.00226895
  44         0.00000000
  45         0.00439913
  46        -0.00278686
  47        -0.00418236
  48         0.65835334
  49         0.00000000
  50         0.00000000
  51         0.00788369
  52         0.00000000
  53         0.00000000
  54        -0.00320683
  55         0.00000000
  56         0.00000000
  57         0.00239788
  58         0.00000000
  59         0.00000000
  60        -0.00415324
  61         0.00000000
  62         0.00130998
  63         0.00000000
  64         0.00000000
  65        -0.00226895
  66         0.00000000
  67        -0.00191622
  68         0.00182000
  69         0.00420514
  70         0.24963904
  71         0.00000000
  72         0.00000000
  73         0.00005117
  74         0.00000000
  75         0.00000000
  76         0.00001092
  77         0.00000000
  78         0.00000000
  79        -0.00116461
  80         0.00000000
  81         0.00000000
  82         0.00201717
  83         0.00000000
  84        -0.00115662
  85         0.00000000
  86         0.00000000
  87         0.00200332
  88         0.00000000
Sym=    12a  
Ene=    -2.6903
Spin= Alpha
Occup=    2.00000
   1         0.00131755
   2        -0.00145369
   3         0.00026445
   4         0.15602333
   5         0.00000000
   6         0.00000000
   7         0.00170301
   8         0.00000000
   9         0.00000000
  10        -0.00032993
  11         0.00000000
  12         0.00000000
  13         0.00087434
  14         0.00000000
  15         0.00000000
  16        -0.00151441
  17         0.00000000
  18         0.00053614
  19         0.00000000
  20         0.00000000
  21        -0.00092862
  22         0.00000000
  23        -0.00264996
  24         0.00167769
  25         0.00193368
  26         0.68891923
  27         0.00000000
  28         0.00000000
  29         0.00986843
  30         0.00000000
  31         0.00000000
  32         0.00028051
  33         0.00000000
  34         0.00000000
  35        -0.00184399
  36         0.00000000
  37         0.00000000
  38         0.00319389
  39         0.00000000
  40         0.00070555
  41         0.00000000
  42         0.00000000
  43        -0.00122204
  44         0.00000000
  45         0.00264996
  46        -0.00167769
  47        -0.00193368
  48         0.68891923
  49         0.00000000
  50         0.00000000
  51         0.00986843
  52         0.00000000
  53         0.00000000
  54         0.00028051
  55         0.00000000
  56         0.00000000
  57         0.00184399
  58         0.00000000
  59         0.00000000
  60        -0.00319389
  61         0.00000000
  62        -0.00070555
  63         0.00000000
  64         0.00000000
  65         0.00122204
  66         0.00000000
  67        -0.00131755
  68         0.00145369
  69        -0.00026445
  70         0.15602333
  71         0.00000000
  72         0.00000000
  73         0.00170301
  74         0.00000000
  75         0.00000000
  76        -0.00032993
  77         0.00000000
  78         0.00000000
  79        -0.00087434
  80         0.00000000
  81         0.00000000
  82         0.00151441
  83         0.00000000
  84        -0.00053614
  85         0.00000000
  86         0.00000000
  87         0.00092862
  88         0.00000000
Sym=    13a  
Ene=    -2.6872
Spin= Alpha
Occup=    2.00000
   1         0.00000000
   2         0.00000000
   3         0.00000000
   4         0.00000000
   5         0.00000000
   6        -0.01343681
   7         0.00000000
   8         0.00000000
   9        -0.00066144
  10         0.00000000
  11         0.00000000
  12         0.00092334
  13         0.00000000
  14         0.00004817
  15         0.00000000
  16         0.00000000
  17         0.00000000
  18         0.00000000
  19        -0.00014903
  20         0.00000000
  21         0.00000000
  22         0.00000000
  23         0.00000000
  24         0.00000000
  25         0.00000000
  26         0.00000000
  27         0.00000000
  28         0.70431061