   This run of MOLCAS is using the pymolcas driver

                             OPE
                             OPE          NMOL  CASOP  ENMOLC A   SO
                 OPE        NMOLC        AS  OP EN  MO LC     AS  OP
                OPENM       OL CA        SO  PE NM  OL CA     SOP EN
                OP EN      MO   LC       AS  OP ENMOL  CASO   PENMOL
                OP  EN     MO   LC       AS  OP EN     MO     LC ASO
               OP   E  NMOL  C  AS       OP  EN MO     LC     AS  OP
               OP  E   NMO   LC AS        OPEN  MO     LCASOP EN   M
               O  PEN   MO  LCA  SO
            OPE   NMO   L   CAS    OP
        OPENMOL  CASOP     ENMOL   CASOPE
     OPENMOLCA   SOPENMOLCASOPEN   MOLCASOPE
    OPENMOLCAS   OP           EN   MOL    CAS
    OPENMOLCAS       OP  ENM        O     LCA
    OPENMOLCAS    OPEN  MOLCASO     P  E  NMO
    OPENMOLCAS     OP               E  N  MOL
    OPENMOLCA   SO           PENM   O  L  CAS    OPEN    MO    LCAS
    OPENMOLCA   SOP           ENM   O  L  CAS   OP  EN  MOLC  AS   O
    OPENMOLCA   SOPE           NM      O  LCA   S      OP  EN MO
    OPENMOLC                AS         O  PEN   M      OL  CA  SOPE
    OPENMO        LCASOPE  NMOL        C  ASO   P      ENMOLC     AS
    OPE     NMO      LCA  SO     P     E   NM   OL  CA SO  PE N   MO
          OPENMOLCA            SOPE   NMO        LCAS  O    P  ENMO
     OPENMOLCASOPENMOLCASOPENMOLCASOPENMOLCA
        OPENMOLCASOPENMOLCASOPENMOLCASOPE
            OPENMOLCASOPENMOLCASOPENM
               OPENMOLCASOPENMOLCA        version: 22.06
                   OPENMOLCASO
                       OPE                tag: 12-g046baff

 OpenMolcas is free software; you can redistribute it and/or modify it
 under the terms of the GNU Lesser General Public License version 2.1.
 OpenMolcas is distributed in the hope that it will be useful, but it
 is provided "as is" and without any express or implied warranties.
 For more details see the full text of the license in the file
 LICENSE or in <http://www.gnu.org/licenses/>.

                 Copyright (C) The OpenMolcas Authors
           For the author list and the recommended citation,
                   consult the file CONTRIBUTORS.md

           *************************************************
           * pymolcas version py2.05                       *
           *   build f9d3ff751983c6f4de82e497f3214abf      *
           *   (after the EMIL interpreter by V. Veryazov) *
           *************************************************

configuration info
------------------
Host name: rdm3.rowan.edu (Linux)
C Compiler ID: GNU
C flags: -std=gnu99 -fopenmp
Fortran Compiler ID: GNU
Fortran flags: -fno-aggressive-loop-optimizations -cpp -fdefault-integer-8 -fopenmp
Definitions: _MOLCAS_;_I8_;_LINUX_
Parallel: OFF (GA=OFF)


   ------------------------------------------------------------------
  |
  |              Project: ben
  |       Submitted from: /data/solarcell_tests/as_test/molcas_au
  |         Scratch area: /data/solarcell_tests/as_test/molcas_au/ben
  |      Save outputs to: /data/solarcell_tests/as_test/molcas_au
  |               Molcas: /opt/app1/sandx_fock2
  |
  | Scratch area is empty
  |
  |       MOLCAS_DRIVER = /home/hoy/bin/pymolcas
  | MOLCAS_KEEP_WORKDIR = YES
  |      MOLCAS_MAXITER = 200
  |  MOLCAS_NEW_WORKDIR = NO
  |       MOLCAS_NPROCS = 1
  |        MOLCAS_PRINT = 6
  |       MOLCAS_SOURCE = /opt/app1/sandx_fock2
  |    MOLCAS_STRUCTURE = 0
  |         MOLCAS_TRAP = YES
  |
   ------------------------------------------------------------------

++ ---------   Input file   ---------

&GATEWAY
coord=ben_birad.xyz
basis=lanl2dz
group=nosym

&SEWARD
NODEleted
grid input
grid=fine
end of grid input

&SCF

&RASSCF
nActEl
8 0 0
INACTIVE
79
RAS2
8
DELEted
0 0 0 0
Symmetry
1
Spin
1
CIROot
1 1
 1

&GRID_IT
ALL

&MCPDFT
  KSDFT=T:PBE
  GRADIENT
  End of input

-- ----------------------------------

--- Start Module: gateway at Thu Aug  4 16:44:43 2022 ---

()()()()()()()()()()()()()()()()()()()()()()()()()()()()()()()()()()()()()()()()()()()()()()()()()()

                                              &GATEWAY

                                   only a single process is used
                       available to each process: 80 GB of memory, 4 threads
                                             pid: 33495
()()()()()()()()()()()()()()()()()()()()()()()()()()()()()()()()()()()()()()()()()()()()()()()()()()

 GuessOrb option turned off!
 GuessOrb option turned off!
 GuessOrb option turned off!
 GuessOrb option turned off!

++    Symmetry information:
      ---------------------

                    Character Table for C1 

                             E  
                    a        1  x, y, xy, Rz, z, xz, Ry, yz, Rx, I
--


++    Basis set information:
      ----------------------


      Basis set label: AU.LANL2DZ....ECP.....

      Electronic valence basis set:
      ------------------
      Associated Effective Charge  19.000000 au
      Associated Actual Charge     79.000000 au
      Nuclear Model: Point charge

      Shell  nPrim  nBasis  Cartesian Spherical Contaminant
         s       5       3        X                  
         p       6       3        X                  
         d       3       2                 X         

      Pseudo Potential specification:
      =======================================

      Potential  nTerms    
           H       5
         s-H       6
         p-H       4
         d-H       5
         f-H       5

      Effective Core Potential specification:
      =======================================


      Basis set label: H.LANL2DZ.........

      Electronic valence basis set:
      ------------------
      Associated Effective Charge   1.000000 au
      Associated Actual Charge      1.000000 au
      Nuclear Model: Point charge

      Shell  nPrim  nBasis  Cartesian Spherical Contaminant
         s       4       2        X                  


      Basis set label: C.LANL2DZ.........

      Electronic valence basis set:
      ------------------
      Associated Effective Charge   6.000000 au
      Associated Actual Charge      6.000000 au
      Nuclear Model: Point charge

      Shell  nPrim  nBasis  Cartesian Spherical Contaminant
         s       9       3        X                  
         p       5       2        X                  


      Basis set label: H.LANL2DZ.........

      Electronic valence basis set:
      ------------------
      Associated Effective Charge   1.000000 au
      Associated Actual Charge      1.000000 au
      Nuclear Model: Point charge

      Shell  nPrim  nBasis  Cartesian Spherical Contaminant
         s       4       2        X                  


      Basis set label: C.LANL2DZ.........

      Electronic valence basis set:
      ------------------
      Associated Effective Charge   6.000000 au
      Associated Actual Charge      6.000000 au
      Nuclear Model: Point charge

      Shell  nPrim  nBasis  Cartesian Spherical Contaminant
         s       9       3        X                  
         p       5       2        X                  


      Basis set label: H.LANL2DZ.........

      Electronic valence basis set:
      ------------------
      Associated Effective Charge   1.000000 au
      Associated Actual Charge      1.000000 au
      Nuclear Model: Point charge

      Shell  nPrim  nBasis  Cartesian Spherical Contaminant
         s       4       2        X                  


      Basis set label: C.LANL2DZ.........

      Electronic valence basis set:
      ------------------
      Associated Effective Charge   6.000000 au
      Associated Actual Charge      6.000000 au
      Nuclear Model: Point charge

      Shell  nPrim  nBasis  Cartesian Spherical Contaminant
         s       9       3        X                  
         p       5       2        X                  


      Basis set label: H.LANL2DZ.........

      Electronic valence basis set:
      ------------------
      Associated Effective Charge   1.000000 au
      Associated Actual Charge      1.000000 au
      Nuclear Model: Point charge

      Shell  nPrim  nBasis  Cartesian Spherical Contaminant
         s       4       2        X                  


      Basis set label: AU.LANL2DZ....ECP.....

      Electronic valence basis set:
      ------------------
      Associated Effective Charge  19.000000 au
      Associated Actual Charge     79.000000 au
      Nuclear Model: Point charge

      Shell  nPrim  nBasis  Cartesian Spherical Contaminant
         s       5       3        X                  
         p       6       3        X                  
         d       3       2                 X         

      Pseudo Potential specification:
      =======================================

      Potential  nTerms    
           H       5
         s-H       6
         p-H       4
         d-H       5
         f-H       5

      Effective Core Potential specification:
      =======================================
--


++    Molecular structure info:
      -------------------------

                    ************************************************ 
                    **** Cartesian Coordinates / Bohr, Angstrom **** 
                    ************************************************ 

     Center  Label                x              y              z                     x              y              z
        1      AU1            -10.884822       0.000000       0.000000             -5.760000       0.000000       0.000000
        2      AU2             -5.442411       0.000000       0.000000             -2.880000       0.000000       0.000000
        3      AU3              0.000000       0.000000       0.000000              0.000000       0.000000       0.000000
        4      H4               2.917671      -4.219071       0.096379              1.543965      -2.232636       0.051002
        5      C5               3.038288      -2.131027       0.053549              1.607793      -1.127691       0.028337
        6      C6               5.465549      -1.157372       0.030471              2.892244      -0.612455       0.016124
        7      C7               6.021245       1.518729      -0.021953              3.186306       0.803677      -0.011617
        8      H8               7.598210      -4.789678       0.091158              4.020799      -2.534589       0.048238
        9      C9               7.782304      -2.713945       0.051753              4.118218      -1.436158       0.027387
       10      C10              8.274131       2.709761      -0.056482              4.378482       1.433944      -0.029889
       11      H11              8.458259       4.785499      -0.096050              4.475918       2.532377      -0.050828
       12      C12             10.035155      -1.522862       0.017175              5.310375      -0.805864       0.009089
       13      C13             10.590831       1.153242      -0.034948              5.604426       0.610269      -0.018494
       14      C14             13.018190       2.126457      -0.057334              6.888929       1.125272      -0.030340
       15      H15             13.139574       4.214483      -0.101623              6.953163       2.230208      -0.053777
       16      AU16            16.059215       0.000000       0.000000              8.498170       0.000000       0.000000
       17      AU17            21.501626       0.000000       0.000000             11.378170       0.000000       0.000000
       18      AU18            26.944037       0.000000       0.000000             14.258170       0.000000       0.000000

                    ************************************************* 
                    **** InterNuclear Distances / Bohr, Angstrom **** 
                    ************************************************* 

     Atom centers         Bohr        Angstrom
    9 C9        8 H8      2.084254        1.102940
   11 H11      10 C10   
    5 C5        4 H4      2.091964        1.107020
   15 H15      14 C14     2.092020        1.107050
   10 C10       7 C7      2.548571        1.348646
   12 C12       9 C9    
   14 C14      13 C13     2.615286        1.383950
    6 C6        5 C5      2.615364        1.383991
    7 C7        6 C6      2.733683        1.446603
   13 C13      12 C12   
   13 C13      10 C10     2.791113        1.476993
    9 C9        6 C6      2.791187        1.477033
   16 AU16     14 C14     3.711191        1.963877
    5 C5        3 AU3     3.711514        1.964049
    6 C6        4 H4      3.983721        2.108094
   15 H15      13 C13     3.983935        2.108207
   11 H11       7 C7      4.076306        2.157088
   12 C12       8 H8    
   13 C13      11 H11     4.212468        2.229142
    8 H8        6 C6      4.212550        2.229185
   13 C13       7 C7      4.584197        2.425853
   12 C12       6 C6      4.584219        2.425864
   12 C12      10 C10     4.584945        2.426248
    9 C9        7 C7      4.585007        2.426281
   14 C14      12 C12     4.713976        2.494529
    7 C7        5 C5      4.714282        2.494690
    8 H8        4 H4      4.715195        2.495174
   15 H15      11 H11     4.716015        2.495608
    9 C9        5 C5      4.779695        2.529305
   14 C14      10 C10     4.779784        2.529353
   10 C10       6 C6      4.780210        2.529578
   13 C13       9 C9    
   12 C12       7 C7      5.036296        2.665093
    9 C9        4 H4      5.092352        2.694757
   15 H15      10 C10     5.093010        2.695105
   16 AU16     15 H15     5.128011        2.713626
    4 H4        3 AU3     5.130561        2.714976
    8 H8        5 C5      5.278516        2.793270
   14 C14      11 H11     5.278728        2.793383
    2 AU2       1 AU1     5.442411        2.880000
    3 AU3       2 AU2   
   17 AU17     16 AU16  
   18 AU18     17 AU17  
   10 C10       9 C9      5.447035        2.882447
    6 C6        3 AU3     5.586830        2.956423
   16 AU16     13 C13     5.588776        2.957453
   13 C13       6 C6      5.622431        2.975262
--


            Nuclear Potential Energy           1267.35274595 au

--- Stop Module: gateway at Thu Aug  4 16:44:44 2022 /rc=_RC_ALL_IS_WELL_ ---
*** files: xmldump
    saved to directory /data/solarcell_tests/as_test/molcas_au

--- Start Module: seward at Thu Aug  4 16:44:44 2022 ---

()()()()()()()()()()()()()()()()()()()()()()()()()()()()()()()()()()()()()()()()()()()()()()()()()()

                                              &SEWARD

                                   only a single process is used
                       available to each process: 80 GB of memory, 4 threads
                                             pid: 33501
()()()()()()()()()()()()()()()()()()()()()()()()()()()()()()()()()()()()()()()()()()()()()()()()()()

               SEWARD will generate:
                  Multipole Moment integrals up to order  2
                  Kinetic Energy integrals
                  Nuclear Attraction integrals (point charge)
                  One-Electron Hamiltonian integrals modified with ECP contributions
                  Velocity integrals
                  Pseudo Potential integrals
                  Orbital angular momentum around ( 8.0295 -0.0002 -0.0002 )
                  Velocity quadrupole around ( 8.0295 -0.0002 -0.0002 )
                  Two-Electron Repulsion integrals

                   Integrals are discarded if absolute value <: 0.10E-13
                   Integral cutoff threshold is set to       <: 0.10E-15

            Nuclear Potential Energy           1267.35274595 au


      Basis set specifications :
      Symmetry species         a  
      Basis functions          212

--- Stop Module: seward at Thu Aug  4 16:45:36 2022 /rc=_RC_ALL_IS_WELL_ ---
*** files: xmldump
    saved to directory /data/solarcell_tests/as_test/molcas_au
--- Module seward spent 51 seconds ---

--- Start Module: scf at Thu Aug  4 16:45:36 2022 ---

()()()()()()()()()()()()()()()()()()()()()()()()()()()()()()()()()()()()()()()()()()()()()()()()()()

                                                &SCF

                                   only a single process is used
                       available to each process: 80 GB of memory, 4 threads
                                             pid: 33596
()()()()()()()()()()()()()()()()()()()()()()()()()()()()()()()()()()()()()()()()()()()()()()()()()()

++    Input section:
      --------------

      Header of the integral files:
      
       Integrals generated by Gateway/Seward, Thu Aug  4 16:44:44 2022


      Cartesian coordinates in Angstrom:
      -----------------------------------------------------
      No.  Label        X            Y            Z        
      -----------------------------------------------------
       1   AU1       -5.76000000   0.00000000   0.00000000
       2   AU2       -2.88000000   0.00000000   0.00000000
       3   AU3        0.00000000   0.00000000   0.00000000
       4   H4         1.54396494  -2.23263646   0.05100161
       5   C5         1.60779292  -1.12769088   0.02833704
       6   C6         2.89224398  -0.61245488   0.01612433
       7   C7         3.18630567   0.80367678  -0.01161723
       8   H8         4.02079948  -2.53458871   0.04823850
       9   C9         4.11821787  -1.43615777   0.02738664
      10   C10        4.37848183   1.43394357  -0.02988925
      11   H11        4.47591809   2.53237700  -0.05082751
      12   C12        5.31037539  -0.80586368   0.00908851
      13   C13        5.60442616   0.61026928  -0.01849355
      14   C14        6.88892944   1.12527236  -0.03034002
      15   H15        6.95316299   2.23020830  -0.05377667
      16   AU16       8.49817035   0.00000000   0.00000000
      17   AU17      11.37817035   0.00000000   0.00000000
      18   AU18      14.25817035   0.00000000   0.00000000
      -----------------------------------------------------
      Nuclear repulsion energy = 1267.35274595
--

++    Orbital specifications:
      -----------------------

      Symmetry species               1
                                     a
      Frozen orbitals                0
      Aufbau                        83
      Start temperature = 0.500
      End temperature   = 0.010
      Temperature Factor= 0.460
      Deleted orbitals               0
      Total number of orbitals     212
      Number of basis functions    212
--

      Molecular charge                           0.000

++    Optimization specifications:
      ----------------------------

      SCF Algorithm: Conventional
      Minimized density differences are used
      Number of density matrices in core                5
      Maximum number of NDDO SCF iterations           400
      Maximum number of HF SCF iterations             400
      Threshold for SCF energy change            0.10E-08
      Threshold for density matrix               0.10E-03
      Threshold for Fock matrix                  0.15E-03
      Threshold for linear dependence            0.00E+00
      Threshold at which DIIS is turned on       0.15E+00
      Threshold at which QNR/C2DIIS is turned on 0.75E-01
      Threshold for Norm(delta) (QNR/C2DIIS)     0.20E-04
      DIIS extrapolation of the SCF procedure
      All orbitals punched on: SCFORB
--

      Starting vectors from core diagonalization


++ Convergence information
                                   SCF        iterations: Energy and convergence statistics

Iter     Tot. SCF        One-elec.       Two-elec.     Energy      Max Dij or  Max Fij      DNorm      TNorm      AccCon     Time
         Energy          Energy          Energy        Change      Delta Norm                                                in Sec.
   1  -927.532201634 -4550.334975073  2355.450027493   0.00E+00    0.48E+00*   0.32E+01*    0.10E+03   0.45E+03   None        13.
   2  -639.349095073 -3686.226052980  1779.524211962   0.29E+03*   0.43E+00*   0.22E+01*    0.16E+03   0.32E+03   EDIIS       10.
   3 -1021.664156515 -4212.877186600  1923.860284140  -0.38E+03*   0.20E+00*   0.73E+00*    0.73E+02   0.37E+03   EDIIS       11.
   4 -1025.270009791 -4279.582354025  1986.959598288  -0.36E+01*   0.24E+00*   0.50E+00*    0.48E+02   0.40E+03   EDIIS       11.
   5 -1083.694529502 -4429.550380506  2078.503105059  -0.58E+02*   0.28E+00*   0.45E+00*    0.22E+02   0.41E+03   EDIIS       11.
   6 -1076.255022968 -4267.685591601  1924.077822688   0.74E+01*   0.22E+00*   0.32E+00*    0.19E+02   0.38E+03   EDIIS       10.
   7 -1092.332908563 -4364.394632188  2004.708977679  -0.16E+02*   0.22E+00*   0.30E+00*    0.12E+02   0.41E+03   EDIIS       10.
   8 -1080.702846899 -4317.595564261  1969.539971417   0.12E+02*   0.23E+00*   0.27E+00*    0.12E+02   0.40E+03   EDIIS       11.
   9 -1109.042502696 -4366.637159314  1990.241910673  -0.28E+02*   0.47E+00*   0.45E+00*    0.79E+01   0.40E+03   EDIIS       11.
  10 -1102.718268707 -4374.056309970  2003.985295318   0.63E+01*   0.28E+00*   0.21E+00*    0.11E+02   0.40E+03   EDIIS       11.
  11 -1109.919937415 -4378.365599737  2001.092916377  -0.72E+01*   0.38E+00*   0.22E+00*    0.58E+01   0.40E+03   EDIIS       11.
  12 -1110.173716070 -4361.274537513  1983.748075497  -0.25E+00*   0.28E+00*   0.21E+00*    0.46E+01   0.40E+03   EDIIS       11.
  13 -1111.795209840 -4371.706969962  1992.559014176  -0.16E+01*   0.62E+00*   0.14E+00*    0.33E+01   0.40E+03   EDIIS       11.
  14 -1111.253073253 -4370.027250307  1991.421431108   0.54E+00*   0.32E+00*   0.68E-01*    0.30E+01   0.40E+03   EDIIS       11.
  15 -1111.985386568 -4369.910408512  1990.572275998  -0.73E+00*   0.29E+00*   0.55E-01*    0.11E+01   0.40E+03   EDIIS       10.
  16 -1111.954743398 -4370.725759360  1991.418270017   0.31E-01*   0.41E-01*   0.31E-01*    0.76E+00   0.40E+03   EDIIS       11.
  17 -1112.016743054 -4370.522707544  1991.153218545  -0.62E-01*   0.80E-01*   0.18E-01*    0.24E+00   0.40E+03   EDIIS       10.
  18 -1112.017521935 -4370.341425631  1990.971157750  -0.78E-03*   0.35E-01*   0.11E-01*    0.12E+00   0.40E+03   EDIIS       10.

       Fermi aufbau procedure completed!
      nOcc=   83

  19 -1112.018239494 -4370.431904285  1991.060918845  -0.72E-03*   0.44E-01*   0.69E-02*    0.43E-01   0.40E+03   EDIIS       10.
  20 -1112.019644825 -4370.428649091  1991.056258321  -0.14E-02*   0.22E-01*   0.42E-02*    0.42E-01   0.40E+03   EDIIS       11.
  21 -1112.019593424 -4370.421748149  1991.049408779   0.51E-04*   0.30E-01*   0.44E-02*    0.20E-01   0.40E+03   EDIIS        9.
  22 -1112.020253311 -4370.423602979  1991.050603722  -0.66E-03*   0.11E-01*   0.27E-02*    0.56E-02   0.40E+03   EDIIS       10.
  23 -1112.020358623 -4370.432361855  1991.059257287  -0.11E-03*   0.29E-01*   0.33E-02*    0.38E-02   0.40E+03   c2DIIS       9.
  24 -1112.020553416 -4370.430219398  1991.056920037  -0.19E-03*   0.16E-01*   0.28E-02*    0.18E-02   0.40E+03   QNRc2DIIS    9.
  25 -1112.020538147 -4370.434853819  1991.061569727   0.15E-04*   0.15E-01*   0.61E-02*    0.13E-02   0.40E+03   QNRc2DIIS   10.
  26 -1112.020863941 -4370.435011879  1991.061401993  -0.33E-03*   0.73E-01*   0.20E-02*    0.43E-03   0.40E+03   QNRc2DIIS   11.
  27 -1112.021328857 -4370.443784160  1991.069709358  -0.46E-03*   0.89E-02*   0.42E-03*    0.94E-02   0.40E+03   QNRc2DIIS   10.
  28 -1112.021346473 -4370.444362140  1991.070269721  -0.18E-04*   0.79E-02*   0.27E-03*    0.52E-02   0.40E+03   QNRc2DIIS   10.
  29 -1112.021359484 -4370.440720837  1991.066615408  -0.13E-04*   0.91E-03*   0.66E-04     0.62E-02   0.40E+03   QNRc2DIIS   11.
  30 -1112.021360118 -4370.441143821  1991.067037758  -0.63E-06*   0.80E-03*   0.59E-04     0.40E-02   0.40E+03   QNRc2DIIS   10.
  31 -1112.021360420 -4370.440769137  1991.066662771  -0.30E-06*   0.21E-03*   0.14E-04     0.14E-02   0.40E+03   QNRc2DIIS   10.
  32 -1112.021360451 -4370.440577525  1991.066471129  -0.31E-07*   0.16E-03*   0.77E-05     0.74E-03   0.40E+03   QNRc2DIIS   10.
  33 -1112.021360461 -4370.440455517  1991.066349110  -0.10E-07*   0.63E-04*   0.50E-05     0.43E-03   0.40E+03   QNRc2DIIS   11.
  34 -1112.021360463 -4370.440537280  1991.066430871  -0.19E-08*   0.22E-04*   0.23E-05     0.22E-03   0.40E+03   QNRc2DIIS   10.
  35 -1112.021360464 -4370.440537275  1991.066430866  -0.38E-09    0.76E-05    0.23E-05     0.79E-04   0.40E+03   QNRc2DIIS   10.

       Convergence after 35 Macro Iterations
--

 *****************************************************************************************************************************
 *                                                                                                                           *
 *                                             SCF/KS-DFT Program, Final results                                             *
 *                                                                                                                           *
 *                                                                                                                           *
 *                                                                                                                           *
 *                                                       Final Results                                                       *
 *                                                                                                                           *
 *****************************************************************************************************************************

::    Total SCF energy                              -1112.0213604636
      One-electron energy                           -4370.4405372750
      Two-electron energy                            1991.0664308661
      Nuclear repulsion energy                       1267.3527459454
      Kinetic energy (interpolated)                   565.2668946900
      Virial theorem                                    1.9672501095
      Total spin, S(S+1)                                0.0000000000
      Total spin, S                                     0.0000000000
      Max non-diagonal density matrix element           0.0000115721
      Max non-diagonal Fock matrix element              0.0000009719


      All orbitals with orbital energies smaller than  E(LUMO)+0.5 are printed

++    Molecular orbitals:
      -------------------

      Title: SCF orbitals

      Molecular orbitals for symmetry species 1: a  

          Orbital            1         2         3         4         5         6         7         8         9        10    
          Energy          -11.2804  -11.2804  -11.2722  -11.2719  -11.2630  -11.2630  -11.2572  -11.2571   -4.7413   -4.7413
          Occ. No.          2.0000    2.0000    2.0000    2.0000    2.0000    2.0000    2.0000    2.0000    2.0000    2.0000

        1 AU1    6s         0.0000   -0.0000   -0.0000   -0.0000    0.0000    0.0000    0.0000    0.0000    0.0000   -0.0002
        2 AU1    *s         0.0000   -0.0000   -0.0000   -0.0000    0.0000    0.0000    0.0000    0.0000    0.0000   -0.0001
        3 AU1    *s        -0.0000   -0.0000    0.0000    0.0000   -0.0000   -0.0000   -0.0000   -0.0000   -0.0001    0.0007
        4 AU1    *px       -0.0000   -0.0000    0.0000   -0.0000    0.0000   -0.0000   -0.0000   -0.0000   -0.0000   -0.0000
        5 AU1    *px       -0.0000   -0.0000   -0.0000   -0.0000    0.0000   -0.0000    0.0000   -0.0000    0.0000    0.0003
        6 AU1    *px        0.0000    0.0000    0.0000    0.0000   -0.0000    0.0000   -0.0000   -0.0000   -0.0000   -0.0001
        7 AU1    *py       -0.0000    0.0000    0.0000    0.0000    0.0000    0.0000   -0.0000   -0.0000   -0.0000   -0.0000
        8 AU1    *py        0.0000   -0.0000   -0.0000   -0.0000   -0.0000   -0.0000    0.0000    0.0000    0.0000    0.0001
        9 AU1    *py       -0.0000   -0.0000   -0.0000   -0.0000   -0.0000   -0.0000    0.0000   -0.0000    0.0000   -0.0000
       10 AU1    *pz       -0.0000    0.0000   -0.0000   -0.0000   -0.0000   -0.0000    0.0000    0.0000    0.0000    0.0000
       11 AU1    *pz       -0.0000   -0.0000    0.0000    0.0000    0.0000    0.0000   -0.0000   -0.0000   -0.0000   -0.0000
       12 AU1    *pz        0.0000    0.0000    0.0000    0.0000    0.0000    0.0000    0.0000    0.0000   -0.0000   -0.0000
       13 AU1    5d2-       0.0000    0.0000    0.0000    0.0000    0.0000    0.0000   -0.0000   -0.0000   -0.0000   -0.0000
       14 AU1    *d2-      -0.0000   -0.0000   -0.0000   -0.0000   -0.0000   -0.0000    0.0000    0.0000    0.0000    0.0001
       15 AU1    5d1-       0.0000    0.0000    0.0000    0.0000    0.0000    0.0000   -0.0000    0.0000   -0.0000   -0.0000
       16 AU1    *d1-      -0.0000   -0.0000   -0.0000   -0.0000   -0.0000   -0.0000    0.0000   -0.0000    0.0000    0.0000
       17 AU1    5d0        0.0000   -0.0000   -0.0000   -0.0000    0.0000    0.0000    0.0000    0.0000    0.0000    0.0000
       18 AU1    *d0       -0.0000    0.0000    0.0000    0.0000   -0.0000    0.0000   -0.0000    0.0000   -0.0000   -0.0000
       19 AU1    5d1+      -0.0000   -0.0000   -0.0000   -0.0000   -0.0000   -0.0000    0.0000   -0.0000    0.0000    0.0000
       20 AU1    *d1+       0.0000   -0.0000    0.0000    0.0000    0.0000    0.0000    0.0000   -0.0000   -0.0000   -0.0000
       21 AU1    5d2+      -0.0000    0.0000    0.0000    0.0000   -0.0000   -0.0000   -0.0000   -0.0000   -0.0000   -0.0000
       22 AU1    *d2+      -0.0000   -0.0000   -0.0000   -0.0000    0.0000   -0.0000    0.0000   -0.0000    0.0000    0.0001
       23 AU2    6s        -0.0000   -0.0000   -0.0000   -0.0000   -0.0000   -0.0000    0.0000    0.0000    0.0002    0.0022
       24 AU2    *s        -0.0000   -0.0000   -0.0000   -0.0000   -0.0000   -0.0000    0.0000    0.0000    0.0000    0.0002
       25 AU2    *s         0.0000    0.0002    0.0000    0.0001    0.0001    0.0000   -0.0000   -0.0000    0.0002    0.0027
       26 AU2    *px       -0.0000    0.0000   -0.0000    0.0000   -0.0000    0.0000   -0.0000    0.0000    0.0000    0.0002
       27 AU2    *px        0.0000    0.0001   -0.0000    0.0000    0.0001    0.0000    0.0000   -0.0000    0.0002    0.0028
       28 AU2    *px       -0.0000   -0.0000    0.0000    0.0001   -0.0000   -0.0000   -0.0000   -0.0000   -0.0001    0.0008
       29 AU2    *py       -0.0000   -0.0000   -0.0000    0.0000    0.0000    0.0000    0.0000   -0.0000   -0.0000    0.0000
       30 AU2    *py        0.0000   -0.0000    0.0000   -0.0000   -0.0000   -0.0000   -0.0000    0.0000    0.0001    0.0003
       31 AU2    *py        0.0000    0.0000    0.0000    0.0001    0.0000    0.0000   -0.0000    0.0000   -0.0000   -0.0001
       32 AU2    *pz        0.0000    0.0000    0.0000    0.0000   -0.0000   -0.0000   -0.0000    0.0000    0.0000   -0.0000
       33 AU2    *pz        0.0000   -0.0000   -0.0000   -0.0000    0.0000    0.0000    0.0000   -0.0000   -0.0000   -0.0000
       34 AU2    *pz       -0.0000   -0.0000   -0.0000   -0.0000   -0.0000   -0.0000    0.0000   -0.0000    0.0000    0.0000
       35 AU2    5d2-      -0.0000   -0.0000   -0.0000    0.0000    0.0000    0.0000    0.0000   -0.0000   -0.0000   -0.0000
       36 AU2    *d2-       0.0000   -0.0000    0.0000   -0.0000   -0.0000   -0.0000   -0.0000    0.0000    0.0001    0.0005
       37 AU2    5d1-      -0.0000   -0.0000    0.0000   -0.0000   -0.0000   -0.0000    0.0000   -0.0000    0.0000    0.0000
       38 AU2    *d1-       0.0000    0.0000    0.0000    0.0000    0.0000    0.0000   -0.0000    0.0000   -0.0000   -0.0000
       39 AU2    5d0        0.0000    0.0000   -0.0000   -0.0000    0.0000    0.0000    0.0000    0.0000   -0.0000   -0.0000
       40 AU2    *d0       -0.0000   -0.0000    0.0000   -0.0000   -0.0000   -0.0000   -0.0000   -0.0000   -0.0000   -0.0005
       41 AU2    5d1+       0.0000    0.0000    0.0000    0.0000   -0.0000   -0.0000   -0.0000    0.0000    0.0000    0.0000
       42 AU2    *d1+      -0.0000   -0.0000   -0.0000   -0.0000    0.0000    0.0000    0.0000   -0.0000   -0.0000   -0.0000
       43 AU2    5d2+      -0.0000   -0.0000   -0.0000    0.0000   -0.0000   -0.0000   -0.0000   -0.0000    0.0000    0.0001
       44 AU2    *d2+       0.0000    0.0000   -0.0000    0.0000    0.0000    0.0000   -0.0000    0.0000    0.0001    0.0008
       45 AU3    6s         0.0000    0.0000   -0.0000    0.0001    0.0001   -0.0000    0.0000    0.0000    0.0710    0.9974
       46 AU3    *s         0.0000    0.0000   -0.0000    0.0000    0.0002   -0.0000    0.0000    0.0000   -0.0001   -0.0016
       47 AU3    *s         0.0001   -0.0000    0.0001   -0.0004    0.0002    0.0000   -0.0000    0.0002    0.0002   -0.0047
       48 AU3    *px        0.0000   -0.0000   -0.0000   -0.0000    0.0000    0.0000    0.0000    0.0000   -0.0004   -0.0064
       49 AU3    *px        0.0001    0.0000    0.0001   -0.0002    0.0004    0.0000    0.0000    0.0001    0.0003    0.0013
       50 AU3    *px        0.0000    0.0001    0.0001    0.0000    0.0000    0.0000   -0.0000    0.0000    0.0000    0.0001
       51 AU3    *py       -0.0000   -0.0000    0.0000    0.0000   -0.0000   -0.0000   -0.0000   -0.0000    0.0003    0.0047
       52 AU3    *py       -0.0000   -0.0001   -0.0000   -0.0000   -0.0001   -0.0000    0.0001   -0.0001   -0.0002    0.0004
       53 AU3    *py       -0.0000   -0.0000   -0.0000   -0.0001    0.0000   -0.0000    0.0000   -0.0000    0.0001    0.0002
       54 AU3    *pz        0.0000    0.0000   -0.0000   -0.0000    0.0000    0.0000    0.0000    0.0000   -0.0000   -0.0001
       55 AU3    *pz        0.0000    0.0000    0.0000    0.0000    0.0000    0.0000   -0.0000    0.0000    0.0000   -0.0000
       56 AU3    *pz        0.0000    0.0000    0.0000    0.0000   -0.0000    0.0000   -0.0000    0.0000   -0.0000   -0.0000
       57 AU3    5d2-       0.0000    0.0000    0.0000    0.0000   -0.0001    0.0000   -0.0000   -0.0000   -0.0003   -0.0046
       58 AU3    *d2-      -0.0000   -0.0001   -0.0000   -0.0001   -0.0002   -0.0000    0.0000    0.0000    0.0002    0.0022
       59 AU3    5d1-       0.0000   -0.0000    0.0000    0.0000   -0.0000    0.0000   -0.0000    0.0000   -0.0000   -0.0001
       60 AU3    *d1-      -0.0000   -0.0000   -0.0000   -0.0000   -0.0000   -0.0000    0.0000   -0.0000    0.0000    0.0000
       61 AU3    5d0        0.0000   -0.0000    0.0000   -0.0000   -0.0001    0.0000   -0.0000    0.0000   -0.0002   -0.0031
       62 AU3    *d0       -0.0000    0.0000   -0.0000    0.0001   -0.0001   -0.0000    0.0000   -0.0000    0.0001    0.0022
       63 AU3    5d1+      -0.0000    0.0000   -0.0000   -0.0000    0.0000   -0.0000    0.0000   -0.0000    0.0000    0.0001
       64 AU3    *d1+       0.0000    0.0000    0.0000    0.0000    0.0000    0.0000   -0.0000    0.0000   -0.0000   -0.0001
       65 AU3    5d2+      -0.0000   -0.0000   -0.0000    0.0000    0.0000    0.0000   -0.0000   -0.0000    0.0001    0.0021
       66 AU3    *d2+       0.0000   -0.0001    0.0000   -0.0002    0.0001   -0.0000    0.0000   -0.0000   -0.0001   -0.0022
       67 H4     1s        -0.0000   -0.0000   -0.0000   -0.0000    0.0005   -0.0000    0.0000   -0.0000   -0.0000    0.0001
       68 H4     *s         0.0001   -0.0001    0.0001    0.0002   -0.0001    0.0000   -0.0000   -0.0001   -0.0004   -0.0022
       69 C5     1s        -0.0035    0.0365    0.0004   -0.0045    0.9982   -0.0112   -0.0026   -0.0000   -0.0000   -0.0004
       70 C5     2s        -0.0001    0.0005   -0.0000   -0.0000    0.0040   -0.0000    0.0000   -0.0000   -0.0000    0.0012
       71 C5     *s        -0.0002    0.0006    0.0004   -0.0002   -0.0005   -0.0001   -0.0004    0.0003    0.0011    0.0007
       72 C5     2px       -0.0001    0.0006    0.0000   -0.0001    0.0004   -0.0000    0.0000   -0.0000   -0.0000   -0.0008
       73 C5     *px        0.0001    0.0003    0.0001   -0.0000   -0.0003   -0.0000   -0.0002    0.0003    0.0009    0.0008
       74 C5     2py       -0.0000    0.0002    0.0000   -0.0000    0.0001   -0.0000   -0.0000   -0.0000    0.0000    0.0006
       75 C5     *py        0.0000    0.0000    0.0002    0.0003   -0.0000    0.0001   -0.0002   -0.0001   -0.0010   -0.0042
       76 C5     2pz        0.0000   -0.0000   -0.0000    0.0000   -0.0000    0.0000    0.0000    0.0000   -0.0000   -0.0000
       77 C5     *pz       -0.0000   -0.0000   -0.0000   -0.0000    0.0000   -0.0000    0.0000    0.0000    0.0000    0.0001
       78 C6     1s        -0.0953    0.9922    0.0070   -0.0515   -0.0372    0.0004    0.0150    0.0012   -0.0000   -0.0000
       79 C6     2s        -0.0005    0.0045   -0.0001    0.0001    0.0003   -0.0000   -0.0002   -0.0000   -0.0001   -0.0003
       80 C6     *s         0.0005   -0.0019    0.0002   -0.0004   -0.0002    0.0004    0.0001   -0.0000    0.0001    0.0002
       81 C6     2px       -0.0000    0.0002   -0.0000    0.0001   -0.0004    0.0000   -0.0002   -0.0000    0.0000    0.0001
       82 C6     *px       -0.0000    0.0001    0.0008   -0.0001    0.0004    0.0000   -0.0007    0.0002   -0.0005   -0.0053
       83 C6     2py        0.0000    0.0001   -0.0001    0.0004   -0.0002    0.0000    0.0002   -0.0001   -0.0000   -0.0001
       84 C6     *py       -0.0000   -0.0001    0.0000   -0.0006   -0.0004   -0.0002    0.0000    0.0007    0.0040    0.0059
       85 C6     2pz       -0.0000   -0.0000    0.0000   -0.0000    0.0000   -0.0000   -0.0000    0.0000    0.0000    0.0000
       86 C6     *pz        0.0000    0.0000   -0.0000    0.0000    0.0000    0.0000    0.0000   -0.0000   -0.0001   -0.0001
       87 C7     1s        -0.0044    0.0516   -0.1590    0.9835    0.0026    0.0004   -0.0018   -0.0536    0.0000    0.0000
       88 C7     2s        -0.0001    0.0005   -0.0006    0.0038   -0.0000   -0.0000    0.0000    0.0002    0.0000    0.0001
       89 C7     *s        -0.0001   -0.0000   -0.0003   -0.0001    0.0002    0.0002   -0.0000    0.0003   -0.0018   -0.0024
       90 C7     2px       -0.0000   -0.0001   -0.0002    0.0007    0.0000    0.0000   -0.0000    0.0004   -0.0001    0.0001
       91 C7     *px        0.0001   -0.0004   -0.0001   -0.0011   -0.0002    0.0000    0.0003    0.0004    0.0014    0.0009
       92 C7     2py        0.0000   -0.0004    0.0001   -0.0004    0.0000    0.0000   -0.0000    0.0003   -0.0000    0.0001
       93 C7     *py        0.0003   -0.0005   -0.0001   -0.0002   -0.0005    0.0001    0.0003    0.0002    0.0025    0.0015
       94 C7     2pz       -0.0000    0.0000   -0.0000    0.0000   -0.0000   -0.0000    0.0000   -0.0000    0.0000   -0.0000
       95 C7     *pz       -0.0000    0.0000    0.0000    0.0000    0.0000   -0.0000   -0.0000   -0.0000   -0.0000   -0.0000
       96 H8     1s        -0.0000   -0.0000    0.0000   -0.0000   -0.0000    0.0000   -0.0006    0.0000   -0.0000   -0.0001
       97 H8     *s        -0.0001    0.0001   -0.0004    0.0001    0.0000   -0.0001    0.0004   -0.0002   -0.0002    0.0005
       98 C9     1s        -0.0001    0.0147    0.0522    0.0072   -0.0031    0.0003   -0.9971    0.0233   -0.0000   -0.0000
       99 C9     2s        -0.0001    0.0003    0.0007    0.0000    0.0000   -0.0000   -0.0046    0.0001   -0.0002   -0.0004
      100 C9     *s         0.0005    0.0001    0.0003    0.0005   -0.0005    0.0002    0.0015    0.0005    0.0014    0.0040
      101 C9     2px        0.0001   -0.0003    0.0005    0.0001    0.0000   -0.0000    0.0001   -0.0000    0.0001   -0.0001
      102 C9     *px        0.0004   -0.0001    0.0001    0.0003   -0.0001    0.0003    0.0002   -0.0001   -0.0021   -0.0025
      103 C9     2py       -0.0000    0.0002    0.0002    0.0001   -0.0000   -0.0000   -0.0002    0.0000    0.0000    0.0001
      104 C9     *py       -0.0001    0.0003   -0.0005    0.0002   -0.0000   -0.0002    0.0008   -0.0003    0.0002    0.0015
      105 C9     2pz        0.0000   -0.0000   -0.0000   -0.0000    0.0000    0.0000    0.0000   -0.0000   -0.0000   -0.0000
      106 C9     *pz       -0.0000   -0.0000    0.0000   -0.0000   -0.0000    0.0000   -0.0000    0.0000    0.0000   -0.0000
      107 C10    1s         0.0143    0.0027   -0.0097    0.0522    0.0002   -0.0031    0.0232    0.9971   -0.0000   -0.0000
      108 C10    2s         0.0003    0.0000   -0.0002    0.0006   -0.0000    0.0000    0.0002    0.0046   -0.0004   -0.0001
      109 C10    *s         0.0000    0.0005    0.0004    0.0004    0.0001   -0.0005   -0.0005   -0.0015    0.0042    0.0008
      110 C10    2px        0.0003    0.0000    0.0001   -0.0005    0.0000   -0.0000   -0.0000    0.0001    0.0001   -0.0001
      111 C10    *px        0.0001   -0.0004   -0.0002   -0.0002   -0.0003    0.0001   -0.0001    0.0002    0.0028    0.0017
      112 C10    2py       -0.0002   -0.0000    0.0000   -0.0002    0.0000    0.0000   -0.0000   -0.0002   -0.0001   -0.0000
      113 C10    *py       -0.0003    0.0001   -0.0004    0.0004    0.0002    0.0000   -0.0003    0.0008   -0.0015    0.0001
      114 C10    2pz        0.0000    0.0000   -0.0000    0.0000   -0.0000   -0.0000    0.0000    0.0000    0.0000    0.0000
      115 C10    *pz        0.0000    0.0000    0.0000   -0.0000   -0.0000    0.0000    0.0000   -0.0000    0.0000   -0.0000
      116 H11    1s        -0.0000   -0.0000   -0.0000    0.0000    0.0000   -0.0000    0.0000    0.0006   -0.0001   -0.0000
      117 H11    *s         0.0002   -0.0000    0.0002   -0.0003   -0.0001    0.0000    0.0002   -0.0004    0.0005   -0.0002
      118 C12    1s         0.0528    0.0056    0.9834    0.1590    0.0005    0.0025    0.0532   -0.0008    0.0000    0.0000
      119 C12    2s         0.0006    0.0000    0.0038    0.0006   -0.0000   -0.0000   -0.0002   -0.0000    0.0001    0.0000
      120 C12    *s         0.0000   -0.0001   -0.0000   -0.0003    0.0002    0.0002   -0.0003    0.0000   -0.0027   -0.0015
      121 C12    2px        0.0001    0.0000   -0.0008   -0.0001   -0.0000   -0.0000    0.0004   -0.0000   -0.0001    0.0001
      122 C12    *px        0.0004   -0.0001    0.0010    0.0004   -0.0000    0.0002    0.0004    0.0002   -0.0011   -0.0013
      123 C12    2py        0.0004    0.0000    0.0004    0.0000   -0.0000   -0.0000    0.0003   -0.0000   -0.0001    0.0001
      124 C12    *py        0.0005   -0.0002    0.0002    0.0002   -0.0001    0.0005    0.0002    0.0002   -0.0019   -0.0022
      125 C12    2pz       -0.0000   -0.0000   -0.0000    0.0000    0.0000    0.0000   -0.0000    0.0000    0.0000   -0.0000
      126 C12    *pz       -0.0000    0.0000   -0.0000   -0.0000    0.0000   -0.0000   -0.0000   -0.0000    0.0000    0.0000
      127 C13    1s         0.9921    0.0952   -0.0523   -0.0098   -0.0005   -0.0371   -0.0019   -0.0148   -0.0000   -0.0000
      128 C13    2s         0.0045    0.0004    0.0002   -0.0000   -0.0000    0.0003    0.0000    0.0002   -0.0003   -0.0000
      129 C13    *s        -0.0020    0.0002   -0.0004    0.0000    0.0004   -0.0002    0.0000   -0.0001    0.0002    0.0001
      130 C13    2px       -0.0002   -0.0000   -0.0001   -0.0000   -0.0000    0.0004   -0.0000   -0.0002   -0.0001    0.0000
      131 C13    *px       -0.0001   -0.0000    0.0004   -0.0008   -0.0000   -0.0004    0.0002   -0.0007    0.0053   -0.0002
      132 C13    2py       -0.0001   -0.0000   -0.0004   -0.0000   -0.0000    0.0002   -0.0000    0.0002    0.0001    0.0000
      133 C13    *py        0.0001    0.0001    0.0005    0.0002    0.0002    0.0004    0.0007   -0.0000   -0.0064   -0.0032
      134 C13    2pz        0.0000    0.0000    0.0000    0.0000    0.0000   -0.0000    0.0000   -0.0000   -0.0000   -0.0000
      135 C13    *pz       -0.0000   -0.0000   -0.0000    0.0000   -0.0000   -0.0000   -0.0000    0.0000    0.0001    0.0001
      136 C14    1s         0.0364    0.0035   -0.0043   -0.0011    0.0112    0.9982    0.0001    0.0025   -0.0004    0.0000
      137 C14    2s         0.0005    0.0000   -0.0000   -0.0000    0.0000    0.0040    0.0000   -0.0000    0.0012   -0.0002
      138 C14    *s         0.0006   -0.0001   -0.0003    0.0003   -0.0002   -0.0005   -0.0003    0.0004    0.0009    0.0010
      139 C14    2px       -0.0006   -0.0000    0.0001    0.0000    0.0000   -0.0004   -0.0000    0.0000    0.0008   -0.0001
      140 C14    *px       -0.0003   -0.0001    0.0000   -0.0001    0.0000    0.0003    0.0003   -0.0002   -0.0009   -0.0008
      141 C14    2py       -0.0002   -0.0000    0.0000    0.0000    0.0000   -0.0001   -0.0000   -0.0000   -0.0006    0.0001
      142 C14    *py       -0.0000   -0.0000   -0.0002   -0.0003   -0.0001    0.0000   -0.0001   -0.0002    0.0043    0.0004
      143 C14    2pz        0.0000    0.0000   -0.0000   -0.0000   -0.0000    0.0000    0.0000    0.0000    0.0000   -0.0000
      144 C14    *pz        0.0000    0.0000    0.0000    0.0000    0.0000   -0.0000    0.0000    0.0000   -0.0001   -0.0000
      145 H15    1s        -0.0000   -0.0000   -0.0000   -0.0000    0.0000    0.0005    0.0000   -0.0000    0.0001   -0.0000
      146 H15    *s        -0.0001    0.0001    0.0001    0.0001    0.0000   -0.0001    0.0001    0.0000   -0.0023   -0.0001
      147 AU16   6s         0.0000    0.0000    0.0001   -0.0000   -0.0000    0.0001   -0.0000   -0.0000    0.9974   -0.0708
      148 AU16   *s         0.0000    0.0000    0.0000   -0.0000   -0.0000    0.0002   -0.0000   -0.0000   -0.0016    0.0002
      149 AU16   *s        -0.0001    0.0001   -0.0004   -0.0000    0.0000    0.0002   -0.0002    0.0001   -0.0046    0.0009
      150 AU16   *px        0.0000   -0.0000    0.0000    0.0000   -0.0000   -0.0000    0.0000    0.0000    0.0065   -0.0005
      151 AU16   *px       -0.0000   -0.0001    0.0003    0.0000   -0.0000   -0.0004    0.0001    0.0000   -0.0013   -0.0001
      152 AU16   *px       -0.0001   -0.0000   -0.0000   -0.0001   -0.0000   -0.0000    0.0000   -0.0000   -0.0001   -0.0000
      153 AU16   *py        0.0000    0.0000   -0.0000   -0.0000    0.0000    0.0000   -0.0000   -0.0000   -0.0047    0.0004
      154 AU16   *py        0.0001    0.0001    0.0000    0.0001    0.0000    0.0001   -0.0001    0.0001   -0.0004    0.0002
      155 AU16   *py        0.0000    0.0000    0.0001    0.0000    0.0000   -0.0000   -0.0000    0.0000   -0.0002   -0.0000
      156 AU16   *pz       -0.0000   -0.0000    0.0000    0.0000   -0.0000   -0.0000    0.0000    0.0000    0.0001   -0.0000
      157 AU16   *pz       -0.0000   -0.0000   -0.0000   -0.0000   -0.0000   -0.0000    0.0000   -0.0000    0.0000   -0.0000
      158 AU16   *pz       -0.0000   -0.0000   -0.0000   -0.0000   -0.0000    0.0000    0.0000   -0.0000    0.0000    0.0000
      159 AU16   5d2-       0.0000    0.0000    0.0000    0.0000    0.0000   -0.0001    0.0000    0.0000   -0.0046    0.0003
      160 AU16   *d2-      -0.0001   -0.0000   -0.0001   -0.0000   -0.0000   -0.0002   -0.0000   -0.0000    0.0022   -0.0001
      161 AU16   5d1-      -0.0000    0.0000    0.0000    0.0000   -0.0000   -0.0000   -0.0000    0.0000   -0.0001    0.0000
      162 AU16   *d1-      -0.0000   -0.0000   -0.0000   -0.0000   -0.0000   -0.0000    0.0000   -0.0000    0.0000   -0.0000
      163 AU16   5d0       -0.0000    0.0000   -0.0000    0.0000   -0.0000   -0.0001   -0.0000    0.0000   -0.0031    0.0002
      164 AU16   *d0        0.0000   -0.0000    0.0001   -0.0000   -0.0000   -0.0001    0.0000   -0.0000    0.0022   -0.0002
      165 AU16   5d1+       0.0000   -0.0000    0.0000   -0.0000   -0.0000    0.0000    0.0000   -0.0000    0.0001   -0.0000
      166 AU16   *d1+       0.0000    0.0000   -0.0000    0.0000    0.0000    0.0000   -0.0000    0.0000   -0.0001    0.0000
      167 AU16   5d2+      -0.0000   -0.0000    0.0000    0.0000    0.0000    0.0000    0.0000    0.0000    0.0021   -0.0002
      168 AU16   *d2+      -0.0001   -0.0000   -0.0002   -0.0000   -0.0000    0.0001    0.0000   -0.0000   -0.0022    0.0002
      169 AU17   6s        -0.0000   -0.0000   -0.0000   -0.0000   -0.0000   -0.0000   -0.0000   -0.0000    0.0022   -0.0002
      170 AU17   *s        -0.0000   -0.0000    0.0000   -0.0000   -0.0000   -0.0000   -0.0000   -0.0000    0.0002   -0.0000
      171 AU17   *s         0.0002    0.0000    0.0001    0.0001    0.0000    0.0001    0.0000    0.0000    0.0027   -0.0002
      172 AU17   *px       -0.0000   -0.0000   -0.0000   -0.0000   -0.0000    0.0000    0.0000   -0.0000   -0.0003    0.0000
      173 AU17   *px       -0.0001   -0.0000   -0.0000   -0.0000   -0.0000   -0.0001   -0.0000    0.0000   -0.0028    0.0002
      174 AU17   *px        0.0000    0.0000   -0.0001   -0.0000    0.0000    0.0000   -0.0000   -0.0000   -0.0008    0.0002
      175 AU17   *py        0.0000    0.0000   -0.0000    0.0000   -0.0000   -0.0000   -0.0000    0.0000   -0.0000    0.0000
      176 AU17   *py        0.0000    0.0000    0.0000    0.0000    0.0000    0.0000    0.0000   -0.0000   -0.0003   -0.0000
      177 AU17   *py       -0.0000   -0.0000   -0.0001   -0.0000   -0.0000   -0.0000    0.0000   -0.0000    0.0001    0.0000
      178 AU17   *pz       -0.0000   -0.0000   -0.0000   -0.0000    0.0000    0.0000    0.0000   -0.0000   -0.0000   -0.0000
      179 AU17   *pz        0.0000    0.0000    0.0000    0.0000   -0.0000   -0.0000   -0.0000    0.0000    0.0000   -0.0000
      180 AU17   *pz        0.0000    0.0000    0.0000    0.0000    0.0000    0.0000   -0.0000    0.0000   -0.0000   -0.0000
      181 AU17   5d2-      -0.0000   -0.0000    0.0000   -0.0000    0.0000    0.0000    0.0000   -0.0000   -0.0000   -0.0000
      182 AU17   *d2-      -0.0000    0.0000   -0.0000   -0.0000   -0.0000   -0.0000   -0.0000    0.0000    0.0005   -0.0000
      183 AU17   5d1-      -0.0000   -0.0000   -0.0000   -0.0000   -0.0000   -0.0000    0.0000   -0.0000    0.0000   -0.0000
      184 AU17   *d1-       0.0000    0.0000    0.0000    0.0000    0.0000    0.0000   -0.0000    0.0000   -0.0000    0.0000
      185 AU17   5d0        0.0000    0.0000   -0.0000   -0.0000    0.0000    0.0000   -0.0000   -0.0000   -0.0000    0.0000
      186 AU17   *d0       -0.0000   -0.0000   -0.0000   -0.0000   -0.0000   -0.0000    0.0000    0.0000   -0.0005    0.0000
      187 AU17   5d1+       0.0000    0.0000    0.0000    0.0000   -0.0000   -0.0000   -0.0000    0.0000    0.0000    0.0000
      188 AU17   *d1+      -0.0000   -0.0000   -0.0000   -0.0000    0.0000    0.0000    0.0000   -0.0000   -0.0000    0.0000
      189 AU17   5d2+      -0.0000   -0.0000    0.0000    0.0000   -0.0000   -0.0000    0.0000    0.0000    0.0001   -0.0000
      190 AU17   *d2+       0.0000    0.0000    0.0000    0.0000    0.0000    0.0000   -0.0000    0.0000    0.0008   -0.0000
      191 AU18   6s        -0.0000    0.0000   -0.0000   -0.0000    0.0000    0.0000   -0.0000   -0.0000   -0.0002    0.0000
      192 AU18   *s        -0.0000    0.0000   -0.0000   -0.0000    0.0000    0.0000   -0.0000   -0.0000   -0.0001    0.0000
      193 AU18   *s        -0.0000   -0.0000    0.0000    0.0000   -0.0000   -0.0000    0.0000   -0.0000    0.0007   -0.0002
      194 AU18   *px        0.0000    0.0000    0.0000   -0.0000    0.0000   -0.0000   -0.0000   -0.0000    0.0000   -0.0000
      195 AU18   *px        0.0000    0.0000    0.0000    0.0000    0.0000   -0.0000   -0.0000    0.0000   -0.0003    0.0000
      196 AU18   *px       -0.0000   -0.0000   -0.0000   -0.0000   -0.0000    0.0000   -0.0000   -0.0000    0.0001   -0.0000
      197 AU18   *py       -0.0000    0.0000   -0.0000   -0.0000   -0.0000   -0.0000   -0.0000   -0.0000    0.0000   -0.0000
      198 AU18   *py        0.0000   -0.0000    0.0000    0.0000    0.0000    0.0000    0.0000    0.0000   -0.0001    0.0000
      199 AU18   *py        0.0000    0.0000    0.0000    0.0000    0.0000    0.0000   -0.0000    0.0000    0.0000   -0.0000
      200 AU18   *pz       -0.0000   -0.0000   -0.0000    0.0000    0.0000    0.0000    0.0000    0.0000   -0.0000    0.0000
      201 AU18   *pz        0.0000    0.0000    0.0000   -0.0000   -0.0000   -0.0000   -0.0000   -0.0000    0.0000   -0.0000
      202 AU18   *pz       -0.0000   -0.0000   -0.0000   -0.0000   -0.0000   -0.0000    0.0000   -0.0000    0.0000    0.0000
      203 AU18   5d2-       0.0000    0.0000    0.0000    0.0000    0.0000    0.0000    0.0000    0.0000   -0.0000   -0.0000
      204 AU18   *d2-      -0.0000   -0.0000   -0.0000   -0.0000   -0.0000   -0.0000   -0.0000   -0.0000    0.0001    0.0000
      205 AU18   5d1-       0.0000    0.0000    0.0000    0.0000    0.0000    0.0000   -0.0000    0.0000   -0.0000    0.0000
      206 AU18   *d1-      -0.0000   -0.0000   -0.0000   -0.0000   -0.0000   -0.0000    0.0000   -0.0000    0.0000   -0.0000
      207 AU18   5d0       -0.0000    0.0000   -0.0000   -0.0000    0.0000    0.0000   -0.0000   -0.0000    0.0000    0.0000
      208 AU18   *d0        0.0000    0.0000    0.0000    0.0000    0.0000   -0.0000   -0.0000    0.0000   -0.0000    0.0000
      209 AU18   5d1+       0.0000   -0.0000    0.0000   -0.0000   -0.0000   -0.0000    0.0000   -0.0000    0.0000    0.0000
      210 AU18   *d1+      -0.0000    0.0000   -0.0000    0.0000    0.0000    0.0000   -0.0000   -0.0000   -0.0000    0.0000
      211 AU18   5d2+       0.0000   -0.0000    0.0000    0.0000   -0.0000   -0.0000    0.0000    0.0000   -0.0000   -0.0000
      212 AU18   *d2+      -0.0000   -0.0000   -0.0000   -0.0000   -0.0000    0.0000    0.0000   -0.0000    0.0001   -0.0000

          Orbital           11        12        13        14        15        16        17        18        19        20    
          Energy           -4.7160   -4.7159   -4.7086   -4.7086   -2.7413   -2.7413   -2.7221   -2.7221   -2.7210   -2.7210
          Occ. No.          2.0000    2.0000    2.0000    2.0000    2.0000    2.0000    2.0000    2.0000    2.0000    2.0000

        1 AU1    6s        -0.0000   -1.0003    0.0000    0.0089    0.0000   -0.0001   -0.0000    0.0001   -0.0000   -0.0000
        2 AU1    *s        -0.0000    0.0001   -0.0000   -0.0002    0.0000    0.0001    0.0001   -0.0001    0.0000   -0.0000
        3 AU1    *s         0.0000    0.0030   -0.0000   -0.0024   -0.0001    0.0018    0.0011   -0.0023    0.0000   -0.0000
        4 AU1    *px        0.0000    0.0072    0.0000   -0.0003   -0.0001    0.0029    0.0046   -0.0103    0.0000    0.0000
        5 AU1    *px       -0.0000    0.0015   -0.0000   -0.0021   -0.0000    0.0016    0.0010   -0.0021    0.0000   -0.0000
        6 AU1    *px        0.0000    0.0005    0.0000   -0.0004   -0.0000   -0.0005   -0.0002    0.0004   -0.0000    0.0000
        7 AU1    *py        0.0000    0.0003    0.0000   -0.0000    0.0000   -0.0002    0.0000   -0.0001    0.0000    0.0000
        8 AU1    *py       -0.0000    0.0000    0.0000   -0.0000    0.0000   -0.0000   -0.0000    0.0000   -0.0000    0.0000
        9 AU1    *py        0.0000    0.0000   -0.0000    0.0000    0.0000    0.0000   -0.0000    0.0001   -0.0000   -0.0000
       10 AU1    *pz       -0.0000   -0.0000    0.0000    0.0000   -0.0000    0.0000   -0.0000    0.0000    0.0000    0.0001
       11 AU1    *pz        0.0000   -0.0000   -0.0000    0.0000    0.0000    0.0000    0.0000   -0.0000    0.0000    0.0000
       12 AU1    *pz       -0.0000   -0.0000    0.0000    0.0000   -0.0000   -0.0000    0.0000   -0.0000   -0.0001   -0.0001
       13 AU1    5d2-      -0.0000   -0.0001    0.0000    0.0000   -0.0000    0.0000   -0.0000    0.0000    0.0000   -0.0000
       14 AU1    *d2-       0.0000    0.0000   -0.0000   -0.0000    0.0000   -0.0000    0.0000   -0.0000   -0.0000    0.0000
       15 AU1    5d1-      -0.0000    0.0000    0.0000    0.0000   -0.0000   -0.0000   -0.0000    0.0000    0.0000    0.0000
       16 AU1    *d1-       0.0000    0.0000   -0.0000   -0.0000    0.0000    0.0000    0.0000   -0.0000   -0.0000   -0.0000
       17 AU1    5d0       -0.0000    0.0007   -0.0000    0.0000    0.0000   -0.0000    0.0000   -0.0000    0.0000   -0.0000
       18 AU1    *d0        0.0000   -0.0006    0.0000    0.0004    0.0000   -0.0004   -0.0002    0.0005   -0.0000    0.0000
       19 AU1    5d1+       0.0000    0.0000   -0.0000   -0.0000    0.0000   -0.0000    0.0000   -0.0000    0.0000   -0.0000
       20 AU1    *d1+      -0.0000   -0.0000    0.0000    0.0000   -0.0000    0.0000   -0.0000    0.0000   -0.0000    0.0001
       21 AU1    5d2+       0.0000   -0.0013    0.0000   -0.0001   -0.0000    0.0000   -0.0000    0.0000   -0.0000   -0.0000
       22 AU1    *d2+      -0.0000    0.0010   -0.0000   -0.0008   -0.0000    0.0007    0.0004   -0.0008    0.0000    0.0000
       23 AU2    6s        -0.0000   -0.0088   -0.0012   -1.0003   -0.0000    0.0014    0.0006   -0.0012   -0.0000   -0.0000
       24 AU2    *s        -0.0000   -0.0001   -0.0000    0.0005    0.0000   -0.0007   -0.0002    0.0005   -0.0000   -0.0000
       25 AU2    *s         0.0000   -0.0013    0.0001    0.0057   -0.0000   -0.0035   -0.0016    0.0030   -0.0000    0.0000
       26 AU2    *px        0.0000    0.0001   -0.0000   -0.0075    0.0011   -0.0457   -0.0248    0.0551   -0.0000   -0.0000
       27 AU2    *px        0.0000    0.0019    0.0000   -0.0002    0.0001   -0.0017   -0.0005    0.0011    0.0000    0.0000
       28 AU2    *px        0.0000    0.0014   -0.0000    0.0001   -0.0001    0.0014    0.0007   -0.0015    0.0000   -0.0000
       29 AU2    *py        0.0000   -0.0000   -0.0000   -0.0002    0.0000   -0.0017    0.0006   -0.0013    0.0000    0.0001
       30 AU2    *py        0.0000   -0.0000    0.0000   -0.0000    0.0000    0.0001   -0.0002    0.0005   -0.0000   -0.0000
       31 AU2    *py       -0.0000    0.0000    0.0000   -0.0000   -0.0001   -0.0002    0.0003   -0.0009    0.0000    0.0000
       32 AU2    *pz       -0.0000    0.0000    0.0000    0.0000   -0.0000    0.0000   -0.0000    0.0000    0.0002    0.0033
       33 AU2    *pz       -0.0000    0.0000   -0.0000    0.0000    0.0000   -0.0000    0.0000   -0.0000   -0.0001   -0.0004
       34 AU2    *pz        0.0000   -0.0000   -0.0000   -0.0000    0.0000    0.0000   -0.0000    0.0000    0.0002    0.0010
       35 AU2    5d2-       0.0000   -0.0000   -0.0000   -0.0000    0.0000   -0.0001   -0.0000    0.0000   -0.0000   -0.0000
       36 AU2    *d2-      -0.0000    0.0000    0.0000   -0.0001   -0.0000    0.0000   -0.0001    0.0002   -0.0000    0.0000
       37 AU2    5d1-       0.0000    0.0000   -0.0000    0.0000   -0.0000    0.0000    0.0000   -0.0000   -0.0000   -0.0000
       38 AU2    *d1-      -0.0000   -0.0000    0.0000   -0.0000   -0.0000   -0.0000   -0.0000    0.0000    0.0000    0.0001
       39 AU2    5d0       -0.0000    0.0001    0.0000    0.0011   -0.0000    0.0006    0.0001   -0.0003    0.0000    0.0000
       40 AU2    *d0       -0.0000    0.0001   -0.0000   -0.0014   -0.0000    0.0012    0.0006   -0.0013   -0.0000   -0.0000
       41 AU2    5d1+      -0.0000    0.0000    0.0000    0.0000   -0.0000    0.0000    0.0000   -0.0000   -0.0000   -0.0001
       42 AU2    *d1+       0.0000   -0.0000   -0.0000    0.0000    0.0000   -0.0000    0.0000   -0.0000   -0.0000    0.0000
       43 AU2    5d2+       0.0000   -0.0001   -0.0000   -0.0019    0.0000   -0.0010   -0.0002    0.0005   -0.0000   -0.0000
       44 AU2    *d2+       0.0000   -0.0002    0.0000    0.0024    0.0001   -0.0021   -0.0010    0.0022   -0.0000   -0.0000
       45 AU3    6s         0.0000    0.0001    0.0000    0.0023   -0.0002    0.0054   -0.0001    0.0002    0.0000    0.0000
       46 AU3    *s         0.0000    0.0001    0.0000   -0.0002    0.0001   -0.0034    0.0001   -0.0001   -0.0000   -0.0000
       47 AU3    *s        -0.0001   -0.0023    0.0001   -0.0030   -0.0002    0.0019   -0.0001   -0.0008   -0.0000    0.0000
       48 AU3    *px       -0.0000   -0.0000    0.0000    0.0002   -0.0202    0.8388    0.2174   -0.4843    0.0000    0.0003
       49 AU3    *px       -0.0000   -0.0000    0.0000    0.0018   -0.0001    0.0086    0.0035   -0.0085    0.0000    0.0000
       50 AU3    *px        0.0000    0.0002    0.0002    0.0009   -0.0002   -0.0026   -0.0013    0.0020   -0.0000    0.0000
       51 AU3    *py        0.0000    0.0000   -0.0000    0.0000    0.0128   -0.5336    0.3441   -0.7666    0.0017    0.0255
       52 AU3    *py        0.0000    0.0003   -0.0001    0.0003    0.0004   -0.0070    0.0065   -0.0136    0.0000    0.0005
       53 AU3    *py        0.0000   -0.0000   -0.0000    0.0000    0.0001    0.0009   -0.0014    0.0033   -0.0000   -0.0001
       54 AU3    *pz       -0.0000   -0.0000    0.0000   -0.0000   -0.0003    0.0135   -0.0089    0.0198    0.0661    0.9940
       55 AU3    *pz       -0.0000   -0.0000    0.0000   -0.0000   -0.0000    0.0002   -0.0002    0.0004    0.0012    0.0182
       56 AU3    *pz       -0.0000    0.0000    0.0000   -0.0000   -0.0000   -0.0000    0.0000   -0.0001   -0.0005   -0.0042
       57 AU3    5d2-      -0.0000   -0.0000    0.0000   -0.0000   -0.0002    0.0065   -0.0009    0.0020   -0.0000   -0.0001
       58 AU3    *d2-       0.0000    0.0002   -0.0000    0.0001    0.0001   -0.0014    0.0002    0.0000   -0.0000    0.0000
       59 AU3    5d1-      -0.0000   -0.0000    0.0000   -0.0000   -0.0000    0.0001   -0.0001    0.0002    0.0003    0.0041
       60 AU3    *d1-       0.0000    0.0000   -0.0000    0.0000    0.0000   -0.0000    0.0000   -0.0000   -0.0000   -0.0009
       61 AU3    5d0       -0.0000   -0.0000    0.0000    0.0000   -0.0001    0.0039   -0.0000    0.0000   -0.0000   -0.0002
       62 AU3    *d0        0.0000    0.0002   -0.0000    0.0004    0.0000   -0.0008   -0.0002    0.0006    0.0000    0.0000
       63 AU3    5d1+       0.0000    0.0000   -0.0000    0.0000    0.0000   -0.0002    0.0000   -0.0000   -0.0003   -0.0054
       64 AU3    *d1+      -0.0000   -0.0000    0.0000   -0.0000   -0.0000    0.0000   -0.0000   -0.0000   -0.0000    0.0009
       65 AU3    5d2+       0.0000    0.0000    0.0000   -0.0001    0.0000   -0.0025   -0.0026    0.0058   -0.0000   -0.0001
       66 AU3    *d2+      -0.0000   -0.0003   -0.0000   -0.0007    0.0001    0.0002    0.0006   -0.0012    0.0000    0.0000
       67 H4     1s         0.0000   -0.0000   -0.0000    0.0000    0.0001   -0.0000    0.0002   -0.0003    0.0000    0.0000
       68 H4     *s        -0.0000    0.0004    0.0001    0.0002   -0.0000   -0.0009    0.0009   -0.0024    0.0000    0.0000
       69 C5     1s         0.0000   -0.0000   -0.0000    0.0000    0.0001   -0.0050    0.0001   -0.0002    0.0000    0.0000
       70 C5     2s         0.0000   -0.0000   -0.0000    0.0001   -0.0001    0.0108   -0.0001    0.0005    0.0000    0.0000
       71 C5     *s        -0.0000   -0.0000    0.0002   -0.0012   -0.0019    0.0069   -0.0017    0.0024   -0.0000   -0.0000
       72 C5     2px        0.0000    0.0000   -0.0000    0.0000    0.0002   -0.0117    0.0008   -0.0017   -0.0000   -0.0000
       73 C5     *px       -0.0001   -0.0009    0.0002   -0.0010   -0.0010    0.0059   -0.0007   -0.0001   -0.0000    0.0000
       74 C5     2py       -0.0000   -0.0000    0.0000    0.0000   -0.0003    0.0085    0.0004   -0.0009    0.0000    0.0001
       75 C5     *py       -0.0001    0.0008    0.0001    0.0002   -0.0003   -0.0006    0.0005   -0.0018    0.0000   -0.0000
       76 C5     2pz        0.0000    0.0000   -0.0000   -0.0000    0.0000   -0.0002   -0.0000    0.0000    0.0001    0.0022
       77 C5     *pz        0.0000   -0.0000   -0.0000   -0.0000    0.0000    0.0000   -0.0000    0.0000    0.0000   -0.0013
       78 C6     1s         0.0000   -0.0000   -0.0000   -0.0000   -0.0000    0.0000    0.0000    0.0000   -0.0000   -0.0000
       79 C6     2s         0.0000   -0.0000   -0.0000   -0.0001   -0.0002    0.0006    0.0000    0.0003   -0.0000   -0.0000
       80 C6     *s        -0.0000    0.0000    0.0000    0.0010    0.0028   -0.0052   -0.0026    0.0008    0.0000   -0.0000
       81 C6     2px        0.0000    0.0000   -0.0000   -0.0000    0.0001    0.0003    0.0002   -0.0005    0.0000   -0.0000
       82 C6     *px       -0.0002   -0.0002    0.0004   -0.0009   -0.0026    0.0057   -0.0030    0.0021   -0.0000   -0.0000
       83 C6     2py       -0.0000    0.0000    0.0000    0.0000   -0.0000   -0.0005    0.0000   -0.0000    0.0000   -0.0000
       84 C6     *py        0.0003   -0.0012   -0.0000   -0.0010    0.0015    0.0010    0.0002   -0.0001   -0.0000   -0.0000
       85 C6     2pz        0.0000   -0.0000   -0.0000   -0.0000   -0.0000    0.0000    0.0000    0.0000   -0.0000   -0.0004
       86 C6     *pz       -0.0000    0.0000   -0.0000    0.0000   -0.0000   -0.0000    0.0000    0.0000   -0.0000   -0.0002
       87 C7     1s         0.0000   -0.0000   -0.0000   -0.0000   -0.0000    0.0001    0.0000   -0.0000   -0.0000   -0.0000
       88 C7     2s         0.0000   -0.0001   -0.0000   -0.0001   -0.0000    0.0005    0.0000   -0.0002   -0.0000   -0.0000
       89 C7     *s        -0.0001    0.0006    0.0001    0.0011    0.0005   -0.0042    0.0014    0.0004    0.0000    0.0000
       90 C7     2px       -0.0000    0.0000   -0.0000   -0.0000   -0.0000    0.0003    0.0002   -0.0001   -0.0000    0.0000
       91 C7     *px        0.0001   -0.0003   -0.0000    0.0005    0.0025   -0.0043    0.0022   -0.0034   -0.0000    0.0000
       92 C7     2py        0.0000   -0.0000    0.0000   -0.0000   -0.0000   -0.0001    0.0000   -0.0001   -0.0000    0.0000
       93 C7     *py        0.0001   -0.0005    0.0000    0.0001    0.0033   -0.0021   -0.0006    0.0003    0.0000   -0.0000
       94 C7     2pz       -0.0000    0.0000   -0.0000    0.0000    0.0000    0.0000   -0.0000    0.0000   -0.0000   -0.0000
       95 C7     *pz       -0.0000    0.0000   -0.0000   -0.0000   -0.0001    0.0000    0.0000   -0.0000    0.0002   -0.0003
       96 H8     1s         0.0000   -0.0000   -0.0000   -0.0000    0.0001    0.0001   -0.0001    0.0000    0.0000    0.0000
       97 H8     *s        -0.0001    0.0001   -0.0001    0.0002    0.0002   -0.0016    0.0014    0.0001   -0.0000    0.0000
       98 C9     1s         0.0000    0.0000   -0.0000    0.0000    0.0000   -0.0000   -0.0000    0.0000    0.0000   -0.0000
       99 C9     2s         0.0000    0.0000   -0.0000    0.0000    0.0003   -0.0001   -0.0004    0.0004    0.0000   -0.0000
      100 C9     *s        -0.0001   -0.0003    0.0004   -0.0001   -0.0034    0.0012    0.0044   -0.0018   -0.0000    0.0000
      101 C9     2px        0.0000    0.0000    0.0000    0.0000   -0.0002   -0.0000    0.0001    0.0002   -0.0000   -0.0000
      102 C9     *px       -0.0003    0.0002    0.0004    0.0003   -0.0026    0.0023   -0.0015   -0.0003    0.0000    0.0000
      103 C9     2py        0.0000    0.0000    0.0000    0.0000   -0.0001    0.0001    0.0000   -0.0000    0.0000   -0.0000
      104 C9     *py       -0.0001    0.0002   -0.0002    0.0003    0.0001   -0.0025    0.0032   -0.0002   -0.0000    0.0000
      105 C9     2pz       -0.0000   -0.0000   -0.0000   -0.0000    0.0000   -0.0000   -0.0000    0.0000    0.0001   -0.0001
      106 C9     *pz        0.0000   -0.0000    0.0000   -0.0000    0.0000    0.0000   -0.0001   -0.0000   -0.0005    0.0008
      107 C10    1s        -0.0000   -0.0000   -0.0000    0.0000    0.0000   -0.0000    0.0000    0.0000   -0.0000    0.0000
      108 C10    2s        -0.0000   -0.0000   -0.0000    0.0000    0.0001   -0.0003    0.0005    0.0000   -0.0000    0.0000
      109 C10    *s         0.0003    0.0001    0.0001   -0.0004   -0.0014    0.0033   -0.0044    0.0015    0.0000   -0.0000
      110 C10    2px        0.0000    0.0000    0.0000    0.0000   -0.0000   -0.0002   -0.0000   -0.0002    0.0000    0.0000
      111 C10    *px        0.0002   -0.0003    0.0003    0.0004    0.0024   -0.0025   -0.0010    0.0012   -0.0000   -0.0000
      112 C10    2py        0.0000    0.0000    0.0000    0.0000    0.0001   -0.0001    0.0001   -0.0000    0.0000   -0.0000
      113 C10    *py        0.0002   -0.0001    0.0003   -0.0002   -0.0025   -0.0000    0.0026   -0.0020   -0.0000    0.0000
      114 C10    2pz       -0.0000   -0.0000   -0.0000   -0.0000   -0.0000    0.0000   -0.0000    0.0000    0.0001   -0.0001
      115 C10    *pz       -0.0000    0.0000   -0.0000    0.0000    0.0000    0.0000   -0.0001    0.0000   -0.0007    0.0006
      116 H11    1s         0.0000   -0.0000    0.0000    0.0000   -0.0001   -0.0001    0.0001   -0.0000    0.0000    0.0000
      117 H11    *s        -0.0001    0.0001   -0.0002    0.0001    0.0016   -0.0001   -0.0010    0.0010    0.0000   -0.0000
      118 C12    1s         0.0000   -0.0000    0.0000    0.0000   -0.0001    0.0000   -0.0000   -0.0000   -0.0000   -0.0000
      119 C12    2s         0.0001   -0.0000    0.0001    0.0000   -0.0005    0.0000   -0.0001   -0.0001   -0.0000   -0.0000
      120 C12    *s        -0.0006    0.0001   -0.0011   -0.0001    0.0042   -0.0003   -0.0008    0.0012    0.0000    0.0000
      121 C12    2px        0.0000   -0.0000   -0.0000   -0.0000    0.0003   -0.0000    0.0002   -0.0001   -0.0000    0.0000
      122 C12    *px       -0.0003    0.0001    0.0005   -0.0000   -0.0044    0.0022    0.0039    0.0011   -0.0000    0.0000
      123 C12    2py       -0.0000    0.0000   -0.0000    0.0000   -0.0001   -0.0000    0.0001    0.0000   -0.0000    0.0000
      124 C12    *py       -0.0005    0.0001    0.0001    0.0000   -0.0023    0.0032   -0.0006    0.0002    0.0000   -0.0000
      125 C12    2pz        0.0000    0.0000    0.0000   -0.0000    0.0000    0.0000   -0.0000   -0.0000    0.0000    0.0000
      126 C12    *pz        0.0000   -0.0000   -0.0000   -0.0000    0.0000   -0.0001    0.0000    0.0000    0.0003   -0.0003
      127 C13    1s         0.0000   -0.0000    0.0000    0.0000   -0.0000    0.0000   -0.0000    0.0000   -0.0000   -0.0000
      128 C13    2s         0.0000   -0.0000    0.0001    0.0000   -0.0006    0.0002    0.0002    0.0003   -0.0000   -0.0000
      129 C13    *s        -0.0000    0.0000   -0.0010   -0.0000    0.0053   -0.0026    0.0024   -0.0011   -0.0000    0.0000
      130 C13    2px        0.0000    0.0000   -0.0000   -0.0000    0.0003    0.0001    0.0005    0.0002   -0.0000   -0.0000
      131 C13    *px       -0.0002   -0.0002   -0.0009    0.0004    0.0058   -0.0024   -0.0037    0.0005    0.0000    0.0000
      132 C13    2py        0.0000   -0.0000    0.0000    0.0000   -0.0005   -0.0000    0.0000   -0.0000    0.0000   -0.0000
      133 C13    *py       -0.0012    0.0003   -0.0010   -0.0000    0.0009    0.0015    0.0002   -0.0000    0.0000    0.0000
      134 C13    2pz       -0.0000    0.0000   -0.0000   -0.0000    0.0000    0.0000    0.0000    0.0000    0.0004   -0.0000
      135 C13    *pz        0.0000   -0.0000    0.0000   -0.0000   -0.0000   -0.0000    0.0000   -0.0000    0.0002   -0.0000
      136 C14    1s         0.0000   -0.0000   -0.0000    0.0000    0.0050    0.0001   -0.0002   -0.0001    0.0000    0.0000
      137 C14    2s         0.0000   -0.0000   -0.0001    0.0000   -0.0108   -0.0004    0.0004    0.0003    0.0000    0.0000
      138 C14    *s         0.0000    0.0000    0.0012   -0.0002   -0.0070    0.0016    0.0028    0.0007   -0.0000   -0.0000
      139 C14    2px        0.0000    0.0000    0.0000   -0.0000   -0.0117   -0.0004    0.0018    0.0007   -0.0000    0.0000
      140 C14    *px       -0.0009   -0.0001   -0.0010    0.0002    0.0060   -0.0007   -0.0005    0.0006   -0.0000    0.0000
      141 C14    2py       -0.0000   -0.0000    0.0000    0.0000    0.0085    0.0001    0.0009    0.0004   -0.0001    0.0000
      142 C14    *py        0.0008   -0.0001    0.0002    0.0001   -0.0006   -0.0003    0.0016    0.0010    0.0000   -0.0000
      143 C14    2pz        0.0000    0.0000   -0.0000   -0.0000   -0.0002   -0.0000   -0.0000   -0.0000   -0.0022    0.0002
      144 C14    *pz       -0.0000    0.0000   -0.0000   -0.0000    0.0000    0.0000   -0.0000   -0.0000    0.0013   -0.0002
      145 H15    1s         0.0000   -0.0000   -0.0000    0.0000    0.0000   -0.0000   -0.0004   -0.0001    0.0000    0.0000
      146 H15    *s        -0.0004    0.0000   -0.0002   -0.0001    0.0009    0.0001   -0.0022   -0.0012    0.0000    0.0000
      147 AU16   6s        -0.0001   -0.0000   -0.0023   -0.0000   -0.0054   -0.0001    0.0002    0.0001    0.0000   -0.0000
      148 AU16   *s        -0.0001   -0.0000    0.0002   -0.0000    0.0034    0.0001   -0.0001   -0.0001   -0.0000    0.0000
      149 AU16   *s         0.0023    0.0001    0.0029   -0.0001   -0.0020    0.0001   -0.0005   -0.0007    0.0000   -0.0000
      150 AU16   *px       -0.0000   -0.0000    0.0002    0.0000    0.8395    0.0202    0.4832    0.2169   -0.0003    0.0000
      151 AU16   *px       -0.0000   -0.0000    0.0018    0.0000    0.0086    0.0003    0.0082    0.0040   -0.0000   -0.0000
      152 AU16   *px        0.0002    0.0000    0.0009    0.0002   -0.0026   -0.0003   -0.0023   -0.0006   -0.0000    0.0000
      153 AU16   *py        0.0000    0.0000    0.0000   -0.0000   -0.5324   -0.0128    0.7673    0.3444   -0.0276    0.0018
      154 AU16   *py        0.0003    0.0000    0.0003   -0.0001   -0.0070    0.0000    0.0139    0.0059   -0.0005    0.0000
      155 AU16   *py       -0.0000    0.0000    0.0000   -0.0000    0.0009    0.0001   -0.0033   -0.0016    0.0001   -0.0000
      156 AU16   *pz       -0.0000   -0.0000   -0.0000    0.0000    0.0145    0.0003   -0.0215   -0.0096   -0.9939    0.0661
      157 AU16   *pz       -0.0000   -0.0000   -0.0000    0.0000    0.0002    0.0000   -0.0004   -0.0002   -0.0182    0.0012
      158 AU16   *pz        0.0000   -0.0000   -0.0000    0.0000   -0.0000   -0.0000    0.0001    0.0000    0.0043   -0.0001
      159 AU16   5d2-       0.0000    0.0000    0.0000   -0.0000   -0.0065   -0.0001    0.0020    0.0009   -0.0001    0.0000
      160 AU16   *d2-      -0.0002   -0.0000   -0.0001    0.0000    0.0014   -0.0001   -0.0001    0.0001    0.0000   -0.0000
      161 AU16   5d1-       0.0000    0.0000    0.0000   -0.0000   -0.0001   -0.0000    0.0002    0.0001    0.0040   -0.0003
      162 AU16   *d1-      -0.0000   -0.0000   -0.0000    0.0000    0.0000   -0.0000   -0.0000   -0.0000   -0.0009    0.0001
      163 AU16   5d0        0.0000    0.0000   -0.0000   -0.0000   -0.0039   -0.0001    0.0000    0.0000   -0.0002    0.0000
      164 AU16   *d0       -0.0002   -0.0000   -0.0004    0.0000    0.0008    0.0000    0.0005    0.0003    0.0000   -0.0000
      165 AU16   5d1+      -0.0000   -0.0000   -0.0000    0.0000    0.0002    0.0000   -0.0001   -0.0000   -0.0054    0.0004
      166 AU16   *d1+       0.0000    0.0000    0.0000   -0.0000   -0.0000   -0.0000    0.0000   -0.0000    0.0009   -0.0001
      167 AU16   5d2+      -0.0000   -0.0000    0.0001   -0.0000    0.0025    0.0001    0.0058    0.0026   -0.0001    0.0000
      168 AU16   *d2+       0.0003    0.0000    0.0007    0.0000   -0.0002   -0.0001   -0.0012   -0.0005    0.0000   -0.0000
      169 AU17   6s         0.0088    0.0000    1.0003   -0.0011   -0.0014   -0.0000   -0.0013   -0.0005   -0.0000   -0.0000
      170 AU17   *s         0.0001    0.0000   -0.0005    0.0000    0.0007    0.0000    0.0005    0.0003   -0.0000   -0.0000
      171 AU17   *s         0.0013   -0.0000   -0.0057   -0.0001    0.0035    0.0002    0.0032    0.0012    0.0000   -0.0000
      172 AU17   *px        0.0001    0.0000   -0.0075    0.0000   -0.0458   -0.0011   -0.0552   -0.0248    0.0000   -0.0000
      173 AU17   *px        0.0019    0.0000   -0.0002    0.0000   -0.0017   -0.0000   -0.0011   -0.0004   -0.0000   -0.0000
      174 AU17   *px        0.0014    0.0000    0.0001   -0.0000    0.0014    0.0000    0.0016    0.0006    0.0000   -0.0000
      175 AU17   *py       -0.0000    0.0000   -0.0002    0.0000   -0.0017   -0.0000    0.0013    0.0006   -0.0001    0.0000
      176 AU17   *py       -0.0000    0.0000   -0.0000    0.0000    0.0001    0.0000   -0.0005   -0.0002    0.0000    0.0000
      177 AU17   *py        0.0000   -0.0000   -0.0000    0.0000   -0.0002   -0.0001    0.0008    0.0004   -0.0000   -0.0000
      178 AU17   *pz        0.0000    0.0000    0.0000   -0.0000    0.0000    0.0000   -0.0000   -0.0000   -0.0033    0.0002
      179 AU17   *pz        0.0000   -0.0000    0.0000   -0.0000   -0.0000    0.0000    0.0000    0.0000    0.0004    0.0000
      180 AU17   *pz       -0.0000    0.0000   -0.0000   -0.0000    0.0000    0.0000   -0.0000   -0.0000   -0.0010   -0.0001
      181 AU17   5d2-       0.0000   -0.0000    0.0000    0.0000    0.0001    0.0000    0.0000    0.0000   -0.0000    0.0000
      182 AU17   *d2-      -0.0000    0.0000    0.0001   -0.0000   -0.0000    0.0000    0.0002    0.0001   -0.0000   -0.0000
      183 AU17   5d1-      -0.0000   -0.0000   -0.0000    0.0000   -0.0000   -0.0000   -0.0000    0.0000   -0.0000    0.0000
      184 AU17   *d1-       0.0000    0.0000    0.0000   -0.0000    0.0000    0.0000    0.0000   -0.0000    0.0001   -0.0000
      185 AU17   5d0       -0.0001    0.0000   -0.0011    0.0000   -0.0006   -0.0000   -0.0003   -0.0001    0.0000   -0.0000
      186 AU17   *d0       -0.0001    0.0000    0.0014    0.0000   -0.0012   -0.0000   -0.0013   -0.0006   -0.0000    0.0000
      187 AU17   5d1+      -0.0000    0.0000   -0.0000   -0.0000   -0.0000    0.0000   -0.0000   -0.0000   -0.0001    0.0000
      188 AU17   *d1+       0.0000    0.0000   -0.0000    0.0000    0.0000   -0.0000   -0.0000   -0.0000    0.0000   -0.0000
      189 AU17   5d2+       0.0001   -0.0000    0.0019   -0.0000    0.0010    0.0000    0.0005    0.0002   -0.0000   -0.0000
      190 AU17   *d2+       0.0002   -0.0000   -0.0024   -0.0000    0.0021    0.0000    0.0022    0.0010   -0.0000   -0.0000
      191 AU18   6s         1.0003   -0.0000   -0.0089    0.0000    0.0001   -0.0000    0.0001    0.0000   -0.0000   -0.0000
      192 AU18   *s        -0.0001    0.0000    0.0002    0.0000   -0.0001   -0.0000   -0.0001   -0.0001   -0.0000    0.0000
      193 AU18   *s        -0.0030   -0.0000    0.0024   -0.0000   -0.0018   -0.0000   -0.0023   -0.0010   -0.0000    0.0000
      194 AU18   *px        0.0072   -0.0000   -0.0003    0.0000    0.0029    0.0001    0.0104    0.0047   -0.0000    0.0000
      195 AU18   *px        0.0015   -0.0000   -0.0021   -0.0000    0.0016    0.0001    0.0021    0.0009   -0.0000   -0.0000
      196 AU18   *px        0.0005    0.0000   -0.0004    0.0000   -0.0005   -0.0000   -0.0004   -0.0001   -0.0000    0.0000
      197 AU18   *py        0.0003   -0.0000   -0.0000    0.0000   -0.0002   -0.0000    0.0001    0.0000   -0.0000    0.0000
      198 AU18   *py        0.0000   -0.0000   -0.0000    0.0000   -0.0000   -0.0000   -0.0000   -0.0000   -0.0000    0.0000
      199 AU18   *py        0.0000    0.0000    0.0000   -0.0000    0.0000    0.0000   -0.0001   -0.0001    0.0000    0.0000
      200 AU18   *pz       -0.0000    0.0000    0.0000   -0.0000    0.0000    0.0000   -0.0000   -0.0000   -0.0001    0.0000
      201 AU18   *pz       -0.0000   -0.0000    0.0000   -0.0000    0.0000    0.0000    0.0000    0.0000   -0.0000    0.0000
      202 AU18   *pz       -0.0000   -0.0000    0.0000    0.0000   -0.0000   -0.0000    0.0000    0.0000    0.0001    0.0001
      203 AU18   5d2-       0.0001    0.0000   -0.0000   -0.0000   -0.0000    0.0000    0.0000    0.0000   -0.0000    0.0000
      204 AU18   *d2-      -0.0000   -0.0000    0.0000    0.0000    0.0000   -0.0000   -0.0000   -0.0000    0.0000   -0.0000
      205 AU18   5d1-      -0.0000    0.0000   -0.0000   -0.0000    0.0000    0.0000    0.0000   -0.0000    0.0000   -0.0000
      206 AU18   *d1-      -0.0000   -0.0000    0.0000    0.0000   -0.0000   -0.0000   -0.0000    0.0000   -0.0000    0.0000
      207 AU18   5d0       -0.0007    0.0000   -0.0000    0.0000    0.0000   -0.0000   -0.0000   -0.0000   -0.0000    0.0000
      208 AU18   *d0        0.0006   -0.0000   -0.0004   -0.0000    0.0004    0.0000    0.0005    0.0002    0.0000   -0.0000
      209 AU18   5d1+      -0.0000   -0.0000    0.0000    0.0000    0.0000   -0.0000   -0.0000   -0.0000   -0.0000    0.0000
      210 AU18   *d1+       0.0000    0.0000   -0.0000   -0.0000   -0.0000   -0.0000    0.0000    0.0000    0.0001   -0.0000
[...]
 ###                                                                         ###
 ###                                                                         ###
 ###    WARNING: RunFile label BirthCertificate                              ###
 ###    was used       46 times                                              ###
 ###                                                                         ###
 ###                                                                         ###
 ###############################################################################
 ###############################################################################
--- Stop Module: rasscf at Thu Aug  4 16:58:01 2022 /rc=_RC_ALL_IS_WELL_ ---
*** files: ben.rasscf.molden ben.RasOrb ben.RasOrb.1 ben.rasscf.h5 ben.SpdOrb.1 xmldump
    saved to directory /data/solarcell_tests/as_test/molcas_au
--- Module rasscf spent 7 minutes 22 seconds ---

*** symbolic link created: INPORB -> ben.RasOrb
--- Start Module: grid_it at Thu Aug  4 16:58:01 2022 ---

()()()()()()()()()()()()()()()()()()()()()()()()()()()()()()()()()()()()()()()()()()()()()()()()()()

                                              &GRID_IT

                                   only a single process is used
                       available to each process: 80 GB of memory, 4 threads
                                             pid: 36568
()()()()()()()()()()()()()()()()()()()()()()()()()()()()()()()()()()()()()()()()()()()()()()()()()()


      Cartesian coordinates:
      -----------------------------------------
      No.  Label     X         Y         Z     
      -----------------------------------------
       1   AU1      -10.88482   0.00000   0.00000
       2   AU2       -5.44241   0.00000   0.00000
       3   AU3        0.00000   0.00000   0.00000
       4   H4         2.91767  -4.21907   0.09638
       5   C5         3.03829  -2.13103   0.05355
       6   C6         5.46555  -1.15737   0.03047
       7   C7         6.02125   1.51873  -0.02195
       8   H8         7.59821  -4.78968   0.09116
       9   C9         7.78230  -2.71394   0.05175
      10   C10        8.27413   2.70976  -0.05648
      11   H11        8.45826   4.78550  -0.09605
      12   C12       10.03516  -1.52286   0.01717
      13   C13       10.59083   1.15324  -0.03495
      14   C14       13.01819   2.12646  -0.05733
      15   H15       13.13957   4.21448  -0.10162
      16   AU16      16.05921   0.00000   0.00000
      17   AU17      21.50163   0.00000   0.00000
      18   AU18      26.94404   0.00000   0.00000
      -----------------------------------------
      Grid Origin      =   -14.000000   -8.000000   -4.000000
      Grid Axis Length =    44.000000   16.000000    8.000000
      -----------------------------------------


   Input vectors read from INPORB
   Orbital file label: * RASSCF average (pseudo-natural) orbitals
  Number of grid points in file:                 162925

  Total number of MOs               :                  212
  Number MOs for grid               :                  213
  Batches processed in increments of:                18432

GridName=  1  212      9.9504 (0.00) s
GridName=  1  211      8.8312 (0.00) s
GridName=  1  210      7.1330 (0.00) s
GridName=  1  209      6.9276 (0.00) s
GridName=  1  208      4.5324 (0.00) s
GridName=  1  207      4.5025 (0.00) s
GridName=  1  206      1.7904 (0.00) s
GridName=  1  205      1.7727 (0.00) s
GridName=  1  204      1.7406 (0.00) s
GridName=  1  203      1.6397 (0.00) s
GridName=  1  202      1.5822 (0.00) s
GridName=  1  201      1.5307 (0.00) s
GridName=  1  200      1.4596 (0.00) s
GridName=  1  199      1.4397 (0.00) s
GridName=  1  198      1.3876 (0.00) s
GridName=  1  197      1.3776 (0.00) s
GridName=  1  196      1.3610 (0.00) s
GridName=  1  195      1.1548 (0.00) s
GridName=  1  194      1.1279 (0.00) s
GridName=  1  193      1.1172 (0.00) s
GridName=  1  192      1.0480 (0.00) s
GridName=  1  191      1.0222 (0.00) s
GridName=  1  190      0.9658 (0.00) s
GridName=  1  189      0.9557 (0.00) s
GridName=  1  188      0.9389 (0.00) s
GridName=  1  187      0.9271 (0.00) s
GridName=  1  186      0.8762 (0.00) s
GridName=  1  185      0.8653 (0.00) s
GridName=  1  184      0.8488 (0.00) s
GridName=  1  183      0.8394 (0.00) s
GridName=  1  182      0.8239 (0.00) s
GridName=  1  181      0.8132 (0.00) s
GridName=  1  180      0.8128 (0.00) s
GridName=  1  179      0.7910 (0.00) s
GridName=  1  178      0.7605 (0.00) s
GridName=  1  177      0.7568 (0.00) s
GridName=  1  176      0.7564 (0.00) s
GridName=  1  175      0.7340 (0.00) s
GridName=  1  174      0.7301 (0.00) s
GridName=  1  173      0.7232 (0.00) s
GridName=  1  172      0.7084 (0.00) s
GridName=  1  171      0.6963 (0.00) s
GridName=  1  170      0.6949 (0.00) s
GridName=  1  169      0.6738 (0.00) s
GridName=  1  168      0.6659 (0.00) s
GridName=  1  167      0.6589 (0.00) s
GridName=  1  166      0.6530 (0.00) s
GridName=  1  165      0.6528 (0.00) s
GridName=  1  164      0.6422 (0.00) s
GridName=  1  163      0.6406 (0.00) s
GridName=  1  162      0.6380 (0.00) s
GridName=  1  161      0.6252 (0.00) s
GridName=  1  160      0.6136 (0.00) s
GridName=  1  159      0.6010 (0.00) s
GridName=  1  158      0.5988 (0.00) s
GridName=  1  157      0.5841 (0.00) s
GridName=  1  156      0.5737 (0.00) s
GridName=  1  155      0.5641 (0.00) s
GridName=  1  154      0.5611 (0.00) s
GridName=  1  153      0.5540 (0.00) s
GridName=  1  152      0.5383 (0.00) s
GridName=  1  151      0.5374 (0.00) s
GridName=  1  150      0.5316 (0.00) s
GridName=  1  149      0.5269 (0.00) s
GridName=  1  148      0.5244 (0.00) s
GridName=  1  147      0.5206 (0.00) s
GridName=  1  146      0.5090 (0.00) s
GridName=  1  145      0.5066 (0.00) s
GridName=  1  144      0.4988 (0.00) s
GridName=  1  143      0.4945 (0.00) s
GridName=  1  142      0.4934 (0.00) s
GridName=  1  141      0.4919 (0.00) s
GridName=  1  140      0.4752 (0.00) s
GridName=  1  139      0.4728 (0.00) s
GridName=  1  138      0.4698 (0.00) s
GridName=  1  137      0.4689 (0.00) s
GridName=  1  136      0.4680 (0.00) s
GridName=  1  135      0.4678 (0.00) s
GridName=  1  134      0.4444 (0.00) s
GridName=  1  133      0.4305 (0.00) s
GridName=  1  132      0.4215 (0.00) s
GridName=  1  131      0.3870 (0.00) s
GridName=  1  130      0.3726 (0.00) s
GridName=  1  129      0.3688 (0.00) s
GridName=  1  128      0.3597 (0.00) s
GridName=  1  127      0.3412 (0.00) s
GridName=  1  126      0.3399 (0.00) s
GridName=  1  125      0.2927 (0.00) s
GridName=  1  124      0.2917 (0.00) s
GridName=  1  123      0.2837 (0.00) s
GridName=  1  122      0.2815 (0.00) s
GridName=  1  121      0.2812 (0.00) s
GridName=  1  120      0.2747 (0.00) s
GridName=  1  119      0.2525 (0.00) s
GridName=  1  118      0.2512 (0.00) s
GridName=  1  117      0.2387 (0.00) s
GridName=  1  116      0.2331 (0.00) s
GridName=  1  115      0.2088 (0.00) s
GridName=  1  114      0.2061 (0.00) s
GridName=  1  113      0.1974 (0.00) s
GridName=  1  112      0.1944 (0.00) s
GridName=  1  111      0.1928 (0.00) s
GridName=  1  110      0.1875 (0.00) s
GridName=  1  109      0.1697 (0.00) s
GridName=  1  108      0.1619 (0.00) s
GridName=  1  107      0.1572 (0.00) s
GridName=  1  106      0.1520 (0.00) s
GridName=  1  105      0.1298 (0.00) s
GridName=  1  104      0.1173 (0.00) s
GridName=  1  103      0.1163 (0.00) s
GridName=  1  102      0.1162 (0.00) s
GridName=  1  101      0.1104 (0.00) s
GridName=  1  100      0.1057 (0.00) s
GridName=  1   99      0.0938 (0.00) s
GridName=  1   98      0.0919 (0.00) s
GridName=  1   97      0.0702 (0.00) s
GridName=  1   96      0.0656 (0.00) s
GridName=  1   95      0.0650 (0.00) s
GridName=  1   94      0.0648 (0.00) s
GridName=  1   93      0.0415 (0.00) s
GridName=  1   92      0.0402 (0.00) s
GridName=  1   91      0.0341 (0.00) s
GridName=  1   90      0.0324 (0.00) s
GridName=  1   89      0.0302 (0.00) s
GridName=  1   88      0.0291 (0.00) s
GridName=  1   87      0.0000 (0.10) 2
GridName=  1   85      0.0000 (0.15) 2
GridName=  1   84      0.0000 (0.15) 2
GridName=  1   86      0.0000 (0.83) 2
GridName=  1   83      0.0000 (1.17) 2
GridName=  1   81      0.0000 (1.85) 2
GridName=  1   80      0.0000 (1.85) 2
GridName=  1   82      0.0000 (1.90) 2
GridName=  1   79     -0.3184 (2.00) i
GridName=  1   78     -0.3477 (2.00) i
GridName=  1   77     -0.3506 (2.00) i
GridName=  1   76     -0.3526 (2.00) i
GridName=  1   75     -0.4289 (2.00) i
GridName=  1   74     -0.4304 (2.00) i
GridName=  1   73     -0.4424 (2.00) i
GridName=  1   72     -0.4439 (2.00) i
GridName=  1   71     -0.4466 (2.00) i
GridName=  1   70     -0.4482 (2.00) i
GridName=  1   69     -0.4543 (2.00) i
GridName=  1   68     -0.4546 (2.00) i
GridName=  1   67     -0.4556 (2.00) i
GridName=  1   66     -0.4558 (2.00) i
GridName=  1   65     -0.4607 (2.00) i
GridName=  1   64     -0.4629 (2.00) i
GridName=  1   63     -0.4629 (2.00) i
GridName=  1   62     -0.4651 (2.00) i
GridName=  1   61     -0.4693 (2.00) i
GridName=  1   60     -0.4696 (2.00) i
GridName=  1   59     -0.4696 (2.00) i
GridName=  1   58     -0.4715 (2.00) i
GridName=  1   57     -0.4715 (2.00) i
GridName=  1   56     -0.4717 (2.00) i
GridName=  1   55     -0.4727 (2.00) i
GridName=  1   54     -0.4793 (2.00) i
GridName=  1   53     -0.4851 (2.00) i
GridName=  1   52     -0.4869 (2.00) i
GridName=  1   51     -0.4880 (2.00) i
GridName=  1   50     -0.4961 (2.00) i
GridName=  1   49     -0.5007 (2.00) i
GridName=  1   48     -0.5030 (2.00) i
GridName=  1   47     -0.5107 (2.00) i
GridName=  1   46     -0.5200 (2.00) i
GridName=  1   45     -0.5220 (2.00) i
GridName=  1   44     -0.5344 (2.00) i
GridName=  1   43     -0.5766 (2.00) i
GridName=  1   42     -0.5966 (2.00) i
GridName=  1   41     -0.6215 (2.00) i
GridName=  1   40     -0.6457 (2.00) i
GridName=  1   39     -0.7070 (2.00) i
GridName=  1   38     -0.7937 (2.00) i
GridName=  1   37     -0.8222 (2.00) i
GridName=  1   36     -0.9532 (2.00) i
GridName=  1   35     -0.9945 (2.00) i
GridName=  1   34     -1.0537 (2.00) i
GridName=  1   33     -1.1465 (2.00) i
GridName=  1   32     -2.6986 (2.00) i
GridName=  1   31     -2.6987 (2.00) i
GridName=  1   30     -2.6997 (2.00) i
GridName=  1   29     -2.6998 (2.00) i
GridName=  1   28     -2.7041 (2.00) i
GridName=  1   27     -2.7053 (2.00) i
GridName=  1   26     -2.7091 (2.00) i
GridName=  1   24     -2.7104 (2.00) i
GridName=  1   25     -2.7104 (2.00) i
GridName=  1   23     -2.7106 (2.00) i
GridName=  1   22     -2.7112 (2.00) i
GridName=  1   20     -2.7124 (2.00) i
GridName=  1   21     -2.7124 (2.00) i
GridName=  1   19     -2.7127 (2.00) i
GridName=  1   18     -2.7142 (2.00) i
GridName=  1   17     -2.7161 (2.00) i
GridName=  1   16     -2.7288 (2.00) i
GridName=  1   15     -2.7309 (2.00) i
GridName=  1   14     -4.7102 (2.00) i
GridName=  1   13     -4.7113 (2.00) i
GridName=  1   12     -4.7198 (2.00) i
GridName=  1   11     -4.7216 (2.00) i
GridName=  1   10     -4.7293 (2.00) i
GridName=  1    9     -4.7315 (2.00) i
GridName=  1    8    -11.2320 (2.00) i
GridName=  1    7    -11.2400 (2.00) i
GridName=  1    6    -11.2410 (2.00) i
GridName=  1    5    -11.2460 (2.00) i
GridName=  1    4    -11.2480 (2.00) i
GridName=  1    3    -11.2500 (2.00) i
GridName=  1    2    -11.2510 (2.00) i
GridName=  1    1    -11.2560 (2.00) i

--- Stop Module: grid_it at Thu Aug  4 16:58:05 2022 /rc=_RC_ALL_IS_WELL_ ---
*** files: ben.lus xmldump
    saved to directory /data/solarcell_tests/as_test/molcas_au
--- Module grid_it spent 3 seconds ---

*** symbolic link created: INPORB -> ben.RasOrb
--- Start Module: mcpdft at Thu Aug  4 16:58:06 2022 ---

()()()()()()()()()()()()()()()()()()()()()()()()()()()()()()()()()()()()()()()()()()()()()()()()()()

                                              &MCPDFT

                                   only a single process is used
                       available to each process: 80 GB of memory, 4 threads
                                             pid: 36604
()()()()()()()()()()()()()()()()()()()()()()()()()()()()()()()()()()()()()()()()()()()()()()()()()()


      Header of the ONEINT file:
      --------------------------
      
      Integrals generated by Gateway/Seward, Thu Aug  4 16:44:44 2022


      OrdInt status: non-squared


      Cartesian coordinates in Angstrom:
      -----------------------------------------------------
      No.  Label        X            Y            Z        
      -----------------------------------------------------
       1   AU1       -5.76000000   0.00000000   0.00000000
       2   AU2       -2.88000000   0.00000000   0.00000000
       3   AU3        0.00000000   0.00000000   0.00000000
       4   H4         1.54396494  -2.23263646   0.05100161
       5   C5         1.60779292  -1.12769088   0.02833704
       6   C6         2.89224398  -0.61245488   0.01612433
       7   C7         3.18630567   0.80367678  -0.01161723
       8   H8         4.02079948  -2.53458871   0.04823850
       9   C9         4.11821787  -1.43615777   0.02738664
      10   C10        4.37848183   1.43394357  -0.02988925
      11   H11        4.47591809   2.53237700  -0.05082751
      12   C12        5.31037539  -0.80586368   0.00908851
      13   C13        5.60442616   0.61026928  -0.01849355
      14   C14        6.88892944   1.12527236  -0.03034002
      15   H15        6.95316299   2.23020830  -0.05377667
      16   AU16       8.49817035   0.00000000   0.00000000
      17   AU17      11.37817035   0.00000000   0.00000000
      18   AU18      14.25817035   0.00000000   0.00000000
      -----------------------------------------------------
      Nuclear repulsion energy = 1267.35274595

++    Wave function specifications:
      -----------------------------

      Number of closed shell electrons         158
      Number of electrons in active shells       8
      Max number of holes in RAS1 space          0
      Max nr of electrons in RAS3 space          0
      Number of inactive orbitals               79
      Number of active orbitals                  8
      Number of secondary orbitals             125
      Spin quantum number                      0.0
      State symmetry                             1
--

++    Orbital specifications:
      -----------------------

      Symmetry species                           1
                                                 a
      Frozen orbitals                            0
      Inactive orbitals                         79
      Active orbitals                            8
      RAS1 orbitals                              0
      RAS2 orbitals                              8
      RAS3 orbitals                              0
      Secondary orbitals                       125
      Deleted orbitals                           0
      Number of basis functions                212
--

++    CI expansion specifications:
      ----------------------------

      Number of CSFs                             0
      Number of determinants                     0
      Number of root(s) required                 1
      Root chosen for geometry opt.              1
      CI root used                               1
      highest root included in the CI            1
      max. size of the explicit Hamiltonian    200
--

++    Optimization specifications:
      ----------------------------

      RASSCF algorithm: Conventional
      This is a MC-PDFT calculation with functional: T:PBE                                                                           
      Exchange scaling factor                0.100E+01
      Correlation scaling factor             0.100E+01
      Potentials are computed for gradients
      Maximum number of macro iterations       200
      Maximum number of SX iterations          100
      Threshold for RASSCF energy            0.100E-07
      Threshold for max MO rotation          0.100E+00
      Threshold for max BLB element          0.100E-03
      Level shift parameter                  0.500E+00
      Make Quasi-Newton update
--


      Numerical integration parameters
      --------------------------------
      Radial quadrature type:                         MHL       
      Size of radial grid:                            75
      Lebedev angular grid:                           29
      Angular grid prunned with the crowding factor:  3.00E+00
                                  and fading factor:  6.00E+00
      Screening threshold for integral computation:   1.00E-11
      Radial quadrature accuracy:                     1.00E-25
      Maximum batch size:                             128
      AO values are stored on disk

      DFT functional specifications
      -----------------------------
      Using Libxc version: 5.2.2
      Please cite the following reference:
      S. Lehtola, C. Steigemann, M. J. Oliveira, and M. A. Marques, SoftwareX 7, 1 (2018) doi:10.1016/j.softx.2017.11.002

      * Perdew, Burke & Ernzerhof
        - J. P. Perdew, K. Burke, and M. Ernzerhof, Phys. Rev. Lett. 77, 3865 (1996) doi:10.1103/PhysRevLett.77.3865
        - J. P. Perdew, K. Burke, and M. Ernzerhof, Phys. Rev. Lett. 78, 1396 (1997) doi:10.1103/PhysRevLett.78.1396
      * Perdew, Burke & Ernzerhof
        - J. P. Perdew, K. Burke, and M. Ernzerhof, Phys. Rev. Lett. 77, 3865 (1996) doi:10.1103/PhysRevLett.77.3865
        - J. P. Perdew, K. Burke, and M. Ernzerhof, Phys. Rev. Lett. 78, 1396 (1997) doi:10.1103/PhysRevLett.78.1396

   File JOBOLD not found -- use JOBIPH.
      The MO-coefficients are taken from the file:
      JOBIPH
      Title:(No title given)                                                        

      ********************************************************************************
      ********************************************************************************
      **                          MC-PDFT RESULTS, STATE 0001                         ** 
      ********************************************************************************
      MCSCF reference energy                                            -1112.21880299

      Integrated total density:                                                166.000
      Integrated alpha density before functional transformation:                83.000
      Integrated  beta density before functional transformation:                83.000
      Integrated alpha density  after functional transformation:                85.628
      Integrated  beta density  after functional transformation:                80.372
      NOTE:
      Densities after transformation are intermediate quantities
      and should not be interpreted as real spin densities

      Exchange energy scaling factor                                          1.000000
      Correlation energy scaling factor                                       1.000000

      Integrated alpha exchange energy                                      -58.287906
      Integrated beta  exchange energy                                      -55.975952
      Integrated  correlation   energy                                       -6.663863

      Nuclear Repulsion energy                                           1267.35274595
      Core energy                                                        -995.31915539
      CASSCF contribution energy                                         -998.27063861
      On-top energy                                                      -120.92772110

      Total MC-PDFT energy for state     1                              -1119.19835970

      ********************************************************************************

 Calculating potentials for analytic gradients...

--- Stop Module: mcpdft at Thu Aug  4 16:58:28 2022 /rc=_RC_ALL_IS_WELL_ ---
*** files: xmldump
    saved to directory /data/solarcell_tests/as_test/molcas_au
--- Module mcpdft spent 21 seconds ---
 Happy landing!
    Timing: Wall=822.79 User=1056.39 System=1591.54
